# vtk DataFile Version 3.0
MPS Simulation Step 1000
ASCII
DATASET UNSTRUCTURED_GRID
POINTS 444 double
-5.00000000e-02 -5.00000000e-02 0.0
-5.00000000e-02 -2.50000000e-02 0.0
-5.00000000e-02 0.00000000e+00 0.0
-5.00000000e-02 2.50000000e-02 0.0
-5.00000000e-02 5.00000000e-02 0.0
-5.00000000e-02 7.50000000e-02 0.0
-5.00000000e-02 1.00000000e-01 0.0
-5.00000000e-02 1.25000000e-01 0.0
-5.00000000e-02 1.50000000e-01 0.0
-5.00000000e-02 1.75000000e-01 0.0
-5.00000000e-02 2.00000000e-01 0.0
-5.00000000e-02 2.25000000e-01 0.0
-5.00000000e-02 2.50000000e-01 0.0
-5.00000000e-02 2.75000000e-01 0.0
-5.00000000e-02 3.00000000e-01 0.0
-5.00000000e-02 3.25000000e-01 0.0
-5.00000000e-02 3.50000000e-01 0.0
-5.00000000e-02 3.75000000e-01 0.0
-5.00000000e-02 4.00000000e-01 0.0
-5.00000000e-02 4.25000000e-01 0.0
-5.00000000e-02 4.50000000e-01 0.0
-5.00000000e-02 4.75000000e-01 0.0
-5.00000000e-02 5.00000000e-01 0.0
-5.00000000e-02 5.25000000e-01 0.0
-5.00000000e-02 5.50000000e-01 0.0
-5.00000000e-02 5.75000000e-01 0.0
-2.50000000e-02 -5.00000000e-02 0.0
-2.50000000e-02 -2.50000000e-02 0.0
-2.50000000e-02 0.00000000e+00 0.0
-2.50000000e-02 2.50000000e-02 0.0
-2.50000000e-02 5.00000000e-02 0.0
-2.50000000e-02 7.50000000e-02 0.0
-2.50000000e-02 1.00000000e-01 0.0
-2.50000000e-02 1.25000000e-01 0.0
-2.50000000e-02 1.50000000e-01 0.0
-2.50000000e-02 1.75000000e-01 0.0
-2.50000000e-02 2.00000000e-01 0.0
-2.50000000e-02 2.25000000e-01 0.0
-2.50000000e-02 2.50000000e-01 0.0
-2.50000000e-02 2.75000000e-01 0.0
-2.50000000e-02 3.00000000e-01 0.0
-2.50000000e-02 3.25000000e-01 0.0
-2.50000000e-02 3.50000000e-01 0.0
-2.50000000e-02 3.75000000e-01 0.0
-2.50000000e-02 4.00000000e-01 0.0
-2.50000000e-02 4.25000000e-01 0.0
-2.50000000e-02 4.50000000e-01 0.0
-2.50000000e-02 4.75000000e-01 0.0
-2.50000000e-02 5.00000000e-01 0.0
-2.50000000e-02 5.25000000e-01 0.0
-2.50000000e-02 5.50000000e-01 0.0
-2.50000000e-02 5.75000000e-01 0.0
0.00000000e+00 -5.00000000e-02 0.0
0.00000000e+00 -2.50000000e-02 0.0
0.00000000e+00 0.00000000e+00 0.0
0.00000000e+00 2.50000000e-02 0.0
0.00000000e+00 5.00000000e-02 0.0
0.00000000e+00 7.50000000e-02 0.0
0.00000000e+00 1.00000000e-01 0.0
0.00000000e+00 1.25000000e-01 0.0
0.00000000e+00 1.50000000e-01 0.0
0.00000000e+00 1.75000000e-01 0.0
0.00000000e+00 2.00000000e-01 0.0
0.00000000e+00 2.25000000e-01 0.0
0.00000000e+00 2.50000000e-01 0.0
0.00000000e+00 2.75000000e-01 0.0
0.00000000e+00 3.00000000e-01 0.0
0.00000000e+00 3.25000000e-01 0.0
0.00000000e+00 3.50000000e-01 0.0
0.00000000e+00 3.75000000e-01 0.0
0.00000000e+00 4.00000000e-01 0.0
0.00000000e+00 4.25000000e-01 0.0
0.00000000e+00 4.50000000e-01 0.0
0.00000000e+00 4.75000000e-01 0.0
0.00000000e+00 5.00000000e-01 0.0
0.00000000e+00 5.25000000e-01 0.0
0.00000000e+00 5.50000000e-01 0.0
0.00000000e+00 5.75000000e-01 0.0
2.50000000e-02 -5.00000000e-02 0.0
2.50000000e-02 -2.50000000e-02 0.0
2.50000000e-02 0.00000000e+00 0.0
1.25719894e-02 1.35669911e-02 0.0
2.18985242e-01 4.41519305e-02 0.0
6.76902283e-02 4.25687254e-02 0.0
1.50042950e-01 2.04838552e-02 0.0
7.10672139e-02 5.50961943e-02 0.0
1.83816198e-01 1.53716237e-02 0.0
1.39009143e-02 6.49754274e-02 0.0
1.08621600e-01 3.73048218e-02 0.0
9.98852874e-02 9.84630752e-02 0.0
2.52781280e-01 9.88632461e-02 0.0
1.46988755e-01 4.95931226e-02 0.0
1.87404417e-01 4.10019985e-02 0.0
1.72876800e-01 5.05888622e-02 0.0
6.70044442e-02 9.70725025e-02 0.0
3.51348889e-02 8.51189095e-02 0.0
3.76158340e-02 9.96867640e-02 0.0
2.70357999e-02 1.69181514e-01 0.0
1.31486433e-01 7.79285503e-02 0.0
1.53176765e-02 1.25970998e-01 0.0
5.00000000e-02 -5.00000000e-02 0.0
5.00000000e-02 -2.50000000e-02 0.0
5.00000000e-02 0.00000000e+00 0.0
2.36533532e-01 4.19374003e-02 0.0
3.47332667e-01 6.67933126e-02 0.0
1.92961662e-01 9.06139325e-02 0.0
2.18493342e-01 1.69321618e-02 0.0
2.67284829e-01 9.18508293e-02 0.0
2.78358138e-01 1.86263843e-02 0.0
2.74399016e-01 5.10142827e-02 0.0
3.06382375e-01 8.28366792e-02 0.0
1.54291473e-01 7.00751795e-02 0.0
1.10656145e-01 5.68533820e-02 0.0
2.09082376e-01 9.43326650e-02 0.0
2.03739564e-01 6.28540268e-02 0.0
3.04471149e-01 1.36247108e-01 0.0
8.98609774e-02 1.25658858e-01 0.0
1.87413764e-01 1.25499937e-01 0.0
4.19760414e-02 1.42455755e-01 0.0
1.51160445e-01 8.63162408e-02 0.0
1.32758434e-01 3.10009473e-02 0.0
6.06641327e-02 7.51877585e-02 0.0
7.50000000e-02 -5.00000000e-02 0.0
7.50000000e-02 -2.50000000e-02 0.0
7.50000000e-02 0.00000000e+00 0.0
6.64617859e-02 1.56769316e-02 0.0
5.27314662e-01 4.58505565e-02 0.0
9.56724598e-02 1.64007624e-02 0.0
3.12617321e-01 1.91140770e-02 0.0
5.85809222e-01 1.33537526e-02 0.0
3.66379102e-01 1.60548281e-02 0.0
4.46830927e-01 1.73558633e-02 0.0
3.42136722e-01 8.06558304e-02 0.0
3.82646648e-01 2.63202351e-02 0.0
2.19945760e-01 7.57219648e-02 0.0
3.34715101e-01 1.82095467e-02 0.0
2.64341493e-01 1.39245069e-01 0.0
1.75504078e-01 1.11847316e-01 0.0
3.13862474e-01 1.24344334e-01 0.0
2.94182098e-01 1.57899590e-01 0.0
2.40127822e-01 1.24542292e-01 0.0
6.04661695e-02 1.13756776e-01 0.0
8.59747459e-02 1.82080462e-01 0.0
1.72408778e-01 1.34333709e-01 0.0
1.00000000e-01 -5.00000000e-02 0.0
1.00000000e-01 -2.50000000e-02 0.0
1.00000000e-01 0.00000000e+00 0.0
9.72401899e-02 6.95649013e-02 0.0
6.03962282e-01 1.23174411e-01 0.0
2.85960703e-01 7.87204999e-02 0.0
6.18799780e-01 1.52598757e-02 0.0
7.56695416e-01 1.85568053e-02 0.0
5.80423664e-01 5.10993580e-02 0.0
5.40995449e-01 2.17139924e-02 0.0
6.48044541e-01 2.40056491e-02 0.0
5.59540923e-01 4.17096440e-02 0.0
3.32075790e-01 5.57788658e-02 0.0
3.17409104e-01 6.19802155e-02 0.0
4.03668882e-01 3.61655761e-02 0.0
4.49373342e-01 5.03130907e-02 0.0
3.76751879e-01 7.74183592e-02 0.0
2.90182679e-01 4.10376965e-02 0.0
4.03987697e-01 6.06369734e-02 0.0
3.61285216e-01 1.28175356e-01 0.0
3.20996374e-01 1.58363364e-01 0.0
2.72413250e-01 1.52849038e-01 0.0
1.25000000e-01 -5.00000000e-02 0.0
1.25000000e-01 -2.50000000e-02 0.0
1.25000000e-01 0.00000000e+00 0.0
4.22749394e-01 1.96475467e-02 0.0
2.58769634e-01 7.17305147e-02 0.0
9.17396583e-01 1.49320579e-01 0.0
6.96933163e-01 4.96433299e-02 0.0
7.05361402e-01 8.23799357e-02 0.0
9.20203319e-01 6.04608252e-02 0.0
6.19388880e-01 5.09833968e-02 0.0
6.50405483e-01 7.28604487e-02 0.0
6.60405278e-01 2.68889475e-02 0.0
5.67944905e-01 6.11667244e-02 0.0
7.40307550e-01 4.18304890e-02 0.0
5.08491335e-01 3.70955884e-02 0.0
5.41715223e-01 9.69928140e-02 0.0
4.73822861e-01 7.72950252e-02 0.0
4.83768882e-01 3.95603963e-02 0.0
3.92194919e-01 1.23194736e-01 0.0
3.04482070e-01 1.06755437e-01 0.0
3.81121898e-01 6.57919690e-02 0.0
2.07268996e-01 1.24690285e-01 0.0
1.50000000e-01 -5.00000000e-02 0.0
1.50000000e-01 -2.50000000e-02 0.0
1.50000000e-01 0.00000000e+00 0.0
7.85161614e-01 4.27598398e-01 0.0
8.25573733e-01 5.55918874e-02 0.0
8.93150519e-01 2.00505111e-02 0.0
8.42929217e-01 1.79615502e-02 0.0
9.48738461e-01 1.75791750e-01 0.0
8.84352063e-01 6.27176745e-02 0.0
9.15149248e-01 4.09959395e-02 0.0
8.71537902e-01 1.69613537e-02 0.0
9.13324436e-01 8.58720945e-02 0.0
6.97139672e-01 6.39953382e-02 0.0
8.14678633e-01 1.58608571e-02 0.0
7.88858192e-01 7.18872910e-02 0.0
5.32034018e-01 6.00091825e-02 0.0
6.37706328e-01 1.03175356e-01 0.0
4.25692954e-01 5.55059772e-02 0.0
4.68682687e-01 6.10764778e-02 0.0
4.31555856e-01 7.64712324e-02 0.0
3.71597149e-01 1.18435621e-01 0.0
3.39413617e-01 1.16603121e-01 0.0
1.75000000e-01 -5.00000000e-02 0.0
1.75000000e-01 -2.50000000e-02 0.0
1.75000000e-01 0.00000000e+00 0.0
7.63935792e-01 5.83284510e-01 0.0
9.76670188e-01 3.41216114e-01 0.0
9.71832251e-01 2.66300547e-01 0.0
9.60119262e-01 1.14303900e-01 0.0
9.08781526e-01 2.27837724e-01 0.0
9.82565331e-01 1.31923797e-01 0.0
9.67844234e-01 1.61779959e-01 0.0
9.58524535e-01 6.11637223e-02 0.0
8.91963340e-01 1.28772235e-01 0.0
9.09268623e-01 1.25560332e-01 0.0
8.41742788e-01 8.72724416e-02 0.0
7.57989974e-01 1.38583345e-01 0.0
8.71931914e-01 6.25800597e-02 0.0
7.68296791e-01 1.00337914e-01 0.0
6.26076724e-01 6.86759270e-02 0.0
7.34102258e-01 9.47972078e-02 0.0
5.53795513e-01 7.80883153e-02 0.0
4.71546304e-01 9.50284384e-02 0.0
4.99667475e-01 7.78330576e-02 0.0
2.00000000e-01 -5.00000000e-02 0.0
2.00000000e-01 -2.50000000e-02 0.0
2.00000000e-01 0.00000000e+00 0.0
9.85413929e-01 1.31152170e-02 0.0
8.79937772e-01 2.47332586e-01 0.0
9.73889511e-01 6.45096930e-02 0.0
9.37318695e-01 3.66482502e-01 0.0
9.30996844e-01 3.65565542e-02 0.0
9.10376474e-01 2.70240266e-01 0.0
9.60054557e-01 3.04950318e-01 0.0
9.82205209e-01 9.58073556e-02 0.0
9.47509839e-01 2.05615890e-01 0.0
9.79950883e-01 1.81640794e-01 0.0
8.98190460e-01 2.76029406e-01 0.0
8.68189636e-01 1.12781234e-01 0.0
8.90787480e-01 1.08412497e-01 0.0
8.24670758e-01 3.79552486e-02 0.0
8.33142654e-01 7.29927948e-02 0.0
7.70626811e-01 3.87295245e-02 0.0
7.77518718e-01 6.20202108e-02 0.0
5.60428457e-01 1.02680341e-01 0.0
4.45810428e-01 9.93985920e-02 0.0
2.25000000e-01 -5.00000000e-02 0.0
2.25000000e-01 -2.50000000e-02 0.0
2.25000000e-01 0.00000000e+00 0.0
8.27175673e-01 2.85202134e-01 0.0
9.39087374e-01 4.35057464e-01 0.0
9.00696591e-01 4.46358290e-01 0.0
9.35768045e-01 1.94828850e-02 0.0
9.65634236e-01 4.09859739e-01 0.0
8.66086504e-01 2.87414133e-01 0.0
9.80970942e-01 2.05177681e-01 0.0
9.13867142e-01 3.54654756e-01 0.0
9.23971004e-01 2.20514948e-01 0.0
9.49785652e-01 1.40781136e-01 0.0
9.54783124e-01 2.44628501e-01 0.0
7.99105554e-01 1.84531105e-01 0.0
9.34605676e-01 1.41352821e-01 0.0
9.23195467e-01 1.89749089e-01 0.0
9.62918742e-01 9.79503853e-02 0.0
8.77314391e-01 8.97038716e-02 0.0
8.01575994e-01 5.30342865e-02 0.0
7.51346320e-01 5.89582596e-02 0.0
7.39750180e-01 8.31096378e-02 0.0
2.50000000e-01 -5.00000000e-02 0.0
2.50000000e-01 -2.50000000e-02 0.0
2.50000000e-01 0.00000000e+00 0.0
2.75000000e-01 -5.00000000e-02 0.0
2.75000000e-01 -2.50000000e-02 0.0
2.75000000e-01 0.00000000e+00 0.0
3.00000000e-01 -5.00000000e-02 0.0
3.00000000e-01 -2.50000000e-02 0.0
3.00000000e-01 0.00000000e+00 0.0
3.25000000e-01 -5.00000000e-02 0.0
3.25000000e-01 -2.50000000e-02 0.0
3.25000000e-01 0.00000000e+00 0.0
3.50000000e-01 -5.00000000e-02 0.0
3.50000000e-01 -2.50000000e-02 0.0
3.50000000e-01 0.00000000e+00 0.0
3.75000000e-01 -5.00000000e-02 0.0
3.75000000e-01 -2.50000000e-02 0.0
3.75000000e-01 0.00000000e+00 0.0
4.00000000e-01 -5.00000000e-02 0.0
4.00000000e-01 -2.50000000e-02 0.0
4.00000000e-01 0.00000000e+00 0.0
4.25000000e-01 -5.00000000e-02 0.0
4.25000000e-01 -2.50000000e-02 0.0
4.25000000e-01 0.00000000e+00 0.0
4.50000000e-01 -5.00000000e-02 0.0
4.50000000e-01 -2.50000000e-02 0.0
4.50000000e-01 0.00000000e+00 0.0
4.75000000e-01 -5.00000000e-02 0.0
4.75000000e-01 -2.50000000e-02 0.0
4.75000000e-01 0.00000000e+00 0.0
5.00000000e-01 -5.00000000e-02 0.0
5.00000000e-01 -2.50000000e-02 0.0
5.00000000e-01 0.00000000e+00 0.0
5.25000000e-01 -5.00000000e-02 0.0
5.25000000e-01 -2.50000000e-02 0.0
5.25000000e-01 0.00000000e+00 0.0
5.50000000e-01 -5.00000000e-02 0.0
5.50000000e-01 -2.50000000e-02 0.0
5.50000000e-01 0.00000000e+00 0.0
5.75000000e-01 -5.00000000e-02 0.0
5.75000000e-01 -2.50000000e-02 0.0
5.75000000e-01 0.00000000e+00 0.0
6.00000000e-01 -5.00000000e-02 0.0
6.00000000e-01 -2.50000000e-02 0.0
6.00000000e-01 0.00000000e+00 0.0
6.25000000e-01 -5.00000000e-02 0.0
6.25000000e-01 -2.50000000e-02 0.0
6.25000000e-01 0.00000000e+00 0.0
6.50000000e-01 -5.00000000e-02 0.0
6.50000000e-01 -2.50000000e-02 0.0
6.50000000e-01 0.00000000e+00 0.0
6.75000000e-01 -5.00000000e-02 0.0
6.75000000e-01 -2.50000000e-02 0.0
6.75000000e-01 0.00000000e+00 0.0
7.00000000e-01 -5.00000000e-02 0.0
7.00000000e-01 -2.50000000e-02 0.0
7.00000000e-01 0.00000000e+00 0.0
7.25000000e-01 -5.00000000e-02 0.0
7.25000000e-01 -2.50000000e-02 0.0
7.25000000e-01 0.00000000e+00 0.0
7.50000000e-01 -5.00000000e-02 0.0
7.50000000e-01 -2.50000000e-02 0.0
7.50000000e-01 0.00000000e+00 0.0
7.75000000e-01 -5.00000000e-02 0.0
7.75000000e-01 -2.50000000e-02 0.0
7.75000000e-01 0.00000000e+00 0.0
8.00000000e-01 -5.00000000e-02 0.0
8.00000000e-01 -2.50000000e-02 0.0
8.00000000e-01 0.00000000e+00 0.0
8.25000000e-01 -5.00000000e-02 0.0
8.25000000e-01 -2.50000000e-02 0.0
8.25000000e-01 0.00000000e+00 0.0
8.50000000e-01 -5.00000000e-02 0.0
8.50000000e-01 -2.50000000e-02 0.0
8.50000000e-01 0.00000000e+00 0.0
8.75000000e-01 -5.00000000e-02 0.0
8.75000000e-01 -2.50000000e-02 0.0
8.75000000e-01 0.00000000e+00 0.0
9.00000000e-01 -5.00000000e-02 0.0
9.00000000e-01 -2.50000000e-02 0.0
9.00000000e-01 0.00000000e+00 0.0
9.25000000e-01 -5.00000000e-02 0.0
9.25000000e-01 -2.50000000e-02 0.0
9.25000000e-01 0.00000000e+00 0.0
9.50000000e-01 -5.00000000e-02 0.0
9.50000000e-01 -2.50000000e-02 0.0
9.50000000e-01 0.00000000e+00 0.0
9.75000000e-01 -5.00000000e-02 0.0
9.75000000e-01 -2.50000000e-02 0.0
9.75000000e-01 0.00000000e+00 0.0
1.00000000e+00 -5.00000000e-02 0.0
1.00000000e+00 -2.50000000e-02 0.0
1.00000000e+00 0.00000000e+00 0.0
1.00000000e+00 2.50000000e-02 0.0
1.00000000e+00 5.00000000e-02 0.0
1.00000000e+00 7.50000000e-02 0.0
1.00000000e+00 1.00000000e-01 0.0
1.00000000e+00 1.25000000e-01 0.0
1.00000000e+00 1.50000000e-01 0.0
1.00000000e+00 1.75000000e-01 0.0
1.00000000e+00 2.00000000e-01 0.0
1.00000000e+00 2.25000000e-01 0.0
1.00000000e+00 2.50000000e-01 0.0
1.00000000e+00 2.75000000e-01 0.0
1.00000000e+00 3.00000000e-01 0.0
1.00000000e+00 3.25000000e-01 0.0
1.00000000e+00 3.50000000e-01 0.0
1.00000000e+00 3.75000000e-01 0.0
1.00000000e+00 4.00000000e-01 0.0
1.00000000e+00 4.25000000e-01 0.0
1.00000000e+00 4.50000000e-01 0.0
1.00000000e+00 4.75000000e-01 0.0
1.00000000e+00 5.00000000e-01 0.0
1.00000000e+00 5.25000000e-01 0.0
1.00000000e+00 5.50000000e-01 0.0
1.00000000e+00 5.75000000e-01 0.0
1.02500000e+00 -5.00000000e-02 0.0
1.02500000e+00 -2.50000000e-02 0.0
1.02500000e+00 0.00000000e+00 0.0
1.02500000e+00 2.50000000e-02 0.0
1.02500000e+00 5.00000000e-02 0.0
1.02500000e+00 7.50000000e-02 0.0
1.02500000e+00 1.00000000e-01 0.0
1.02500000e+00 1.25000000e-01 0.0
1.02500000e+00 1.50000000e-01 0.0
1.02500000e+00 1.75000000e-01 0.0
1.02500000e+00 2.00000000e-01 0.0
1.02500000e+00 2.25000000e-01 0.0
1.02500000e+00 2.50000000e-01 0.0
1.02500000e+00 2.75000000e-01 0.0
1.02500000e+00 3.00000000e-01 0.0
1.02500000e+00 3.25000000e-01 0.0
1.02500000e+00 3.50000000e-01 0.0
1.02500000e+00 3.75000000e-01 0.0
1.02500000e+00 4.00000000e-01 0.0
1.02500000e+00 4.25000000e-01 0.0
1.02500000e+00 4.50000000e-01 0.0
1.02500000e+00 4.75000000e-01 0.0
1.02500000e+00 5.00000000e-01 0.0
1.02500000e+00 5.25000000e-01 0.0
1.02500000e+00 5.50000000e-01 0.0
1.02500000e+00 5.75000000e-01 0.0
1.05000000e+00 -5.00000000e-02 0.0
1.05000000e+00 -2.50000000e-02 0.0
1.05000000e+00 0.00000000e+00 0.0
1.05000000e+00 2.50000000e-02 0.0
1.05000000e+00 5.00000000e-02 0.0
1.05000000e+00 7.50000000e-02 0.0
1.05000000e+00 1.00000000e-01 0.0
1.05000000e+00 1.25000000e-01 0.0
1.05000000e+00 1.50000000e-01 0.0
1.05000000e+00 1.75000000e-01 0.0
1.05000000e+00 2.00000000e-01 0.0
1.05000000e+00 2.25000000e-01 0.0
1.05000000e+00 2.50000000e-01 0.0
1.05000000e+00 2.75000000e-01 0.0
1.05000000e+00 3.00000000e-01 0.0
1.05000000e+00 3.25000000e-01 0.0
1.05000000e+00 3.50000000e-01 0.0
1.05000000e+00 3.75000000e-01 0.0
1.05000000e+00 4.00000000e-01 0.0
1.05000000e+00 4.25000000e-01 0.0
1.05000000e+00 4.50000000e-01 0.0
1.05000000e+00 4.75000000e-01 0.0
1.05000000e+00 5.00000000e-01 0.0
1.05000000e+00 5.25000000e-01 0.0
1.05000000e+00 5.50000000e-01 0.0
1.05000000e+00 5.75000000e-01 0.0
CELLS 444 888
1 0
1 1
1 2
1 3
1 4
1 5
1 6
1 7
1 8
1 9
1 10
1 11
1 12
1 13
1 14
1 15
1 16
1 17
1 18
1 19
1 20
1 21
1 22
1 23
1 24
1 25
1 26
1 27
1 28
1 29
1 30
1 31
1 32
1 33
1 34
1 35
1 36
1 37
1 38
1 39
1 40
1 41
1 42
1 43
1 44
1 45
1 46
1 47
1 48
1 49
1 50
1 51
1 52
1 53
1 54
1 55
1 56
1 57
1 58
1 59
1 60
1 61
1 62
1 63
1 64
1 65
1 66
1 67
1 68
1 69
1 70
1 71
1 72
1 73
1 74
1 75
1 76
1 77
1 78
1 79
1 80
1 81
1 82
1 83
1 84
1 85
1 86
1 87
1 88
1 89
1 90
1 91
1 92
1 93
1 94
1 95
1 96
1 97
1 98
1 99
1 100
1 101
1 102
1 103
1 104
1 105
1 106
1 107
1 108
1 109
1 110
1 111
1 112
1 113
1 114
1 115
1 116
1 117
1 118
1 119
1 120
1 121
1 122
1 123
1 124
1 125
1 126
1 127
1 128
1 129
1 130
1 131
1 132
1 133
1 134
1 135
1 136
1 137
1 138
1 139
1 140
1 141
1 142
1 143
1 144
1 145
1 146
1 147
1 148
1 149
1 150
1 151
1 152
1 153
1 154
1 155
1 156
1 157
1 158
1 159
1 160
1 161
1 162
1 163
1 164
1 165
1 166
1 167
1 168
1 169
1 170
1 171
1 172
1 173
1 174
1 175
1 176
1 177
1 178
1 179
1 180
1 181
1 182
1 183
1 184
1 185
1 186
1 187
1 188
1 189
1 190
1 191
1 192
1 193
1 194
1 195
1 196
1 197
1 198
1 199
1 200
1 201
1 202
1 203
1 204
1 205
1 206
1 207
1 208
1 209
1 210
1 211
1 212
1 213
1 214
1 215
1 216
1 217
1 218
1 219
1 220
1 221
1 222
1 223
1 224
1 225
1 226
1 227
1 228
1 229
1 230
1 231
1 232
1 233
1 234
1 235
1 236
1 237
1 238
1 239
1 240
1 241
1 242
1 243
1 244
1 245
1 246
1 247
1 248
1 249
1 250
1 251
1 252
1 253
1 254
1 255
1 256
1 257
1 258
1 259
1 260
1 261
1 262
1 263
1 264
1 265
1 266
1 267
1 268
1 269
1 270
1 271
1 272
1 273
1 274
1 275
1 276
1 277
1 278
1 279
1 280
1 281
1 282
1 283
1 284
1 285
1 286
1 287
1 288
1 289
1 290
1 291
1 292
1 293
1 294
1 295
1 296
1 297
1 298
1 299
1 300
1 301
1 302
1 303
1 304
1 305
1 306
1 307
1 308
1 309
1 310
1 311
1 312
1 313
1 314
1 315
1 316
1 317
1 318
1 319
1 320
1 321
1 322
1 323
1 324
1 325
1 326
1 327
1 328
1 329
1 330
1 331
1 332
1 333
1 334
1 335
1 336
1 337
1 338
1 339
1 340
1 341
1 342
1 343
1 344
1 345
1 346
1 347
1 348
1 349
1 350
1 351
1 352
1 353
1 354
1 355
1 356
1 357
1 358
1 359
1 360
1 361
1 362
1 363
1 364
1 365
1 366
1 367
1 368
1 369
1 370
1 371
1 372
1 373
1 374
1 375
1 376
1 377
1 378
1 379
1 380
1 381
1 382
1 383
1 384
1 385
1 386
1 387
1 388
1 389
1 390
1 391
1 392
1 393
1 394
1 395
1 396
1 397
1 398
1 399
1 400
1 401
1 402
1 403
1 404
1 405
1 406
1 407
1 408
1 409
1 410
1 411
1 412
1 413
1 414
1 415
1 416
1 417
1 418
1 419
1 420
1 421
1 422
1 423
1 424
1 425
1 426
1 427
1 428
1 429
1 430
1 431
1 432
1 433
1 434
1 435
1 436
1 437
1 438
1 439
1 440
1 441
1 442
1 443
CELL_TYPES 444
1
1
1
1
1
1
1
1
1
1
1
1
1
1
1
1
1
1
1
1
1
1
1
1
1
1
1
1
1
1
1
1
1
1
1
1
1
1
1
1
1
1
1
1
1
1
1
1
1
1
1
1
1
1
1
1
1
1
1
1
1
1
1
1
1
1
1
1
1
1
1
1
1
1
1
1
1
1
1
1
1
1
1
1
1
1
1
1
1
1
1
1
1
1
1
1
1
1
1
1
1
1
1
1
1
1
1
1
1
1
1
1
1
1
1
1
1
1
1
1
1
1
1
1
1
1
1
1
1
1
1
1
1
1
1
1
1
1
1
1
1
1
1
1
1
1
1
1
1
1
1
1
1
1
1
1
1
1
1
1
1
1
1
1
1
1
1
1
1
1
1
1
1
1
1
1
1
1
1
1
1
1
1
1
1
1
1
1
1
1
1
1
1
1
1
1
1
1
1
1
1
1
1
1
1
1
1
1
1
1
1
1
1
1
1
1
1
1
1
1
1
1
1
1
1
1
1
1
1
1
1
1
1
1
1
1
1
1
1
1
1
1
1
1
1
1
1
1
1
1
1
1
1
1
1
1
1
1
1
1
1
1
1
1
1
1
1
1
1
1
1
1
1
1
1
1
1
1
1
1
1
1
1
1
1
1
1
1
1
1
1
1
1
1
1
1
1
1
1
1
1
1
1
1
1
1
1
1
1
1
1
1
1
1
1
1
1
1
1
1
1
1
1
1
1
1
1
1
1
1
1
1
1
1
1
1
1
1
1
1
1
1
1
1
1
1
1
1
1
1
1
1
1
1
1
1
1
1
1
1
1
1
1
1
1
1
1
1
1
1
1
1
1
1
1
1
1
1
1
1
1
1
1
1
1
1
1
1
1
1
1
1
1
1
1
1
1
1
1
1
1
1
1
1
1
1
1
1
1
1
1
1
1
1
1
1
1
1
1
1
1
1
1
1
1
1
1
1
1
1
1
1
1
1
1
1
1
1
1
1
1
1
1
1
POINT_DATA 444
SCALARS pressure double 1
LOOKUP_TABLE default
0.00000000e+00
0.00000000e+00
0.00000000e+00
0.00000000e+00
0.00000000e+00
0.00000000e+00
0.00000000e+00
0.00000000e+00
0.00000000e+00
0.00000000e+00
0.00000000e+00
0.00000000e+00
0.00000000e+00
0.00000000e+00
0.00000000e+00
0.00000000e+00
0.00000000e+00
0.00000000e+00
0.00000000e+00
0.00000000e+00
0.00000000e+00
0.00000000e+00
0.00000000e+00
0.00000000e+00
0.00000000e+00
0.00000000e+00
0.00000000e+00
0.00000000e+00
0.00000000e+00
0.00000000e+00
0.00000000e+00
0.00000000e+00
0.00000000e+00
0.00000000e+00
0.00000000e+00
0.00000000e+00
0.00000000e+00
0.00000000e+00
0.00000000e+00
0.00000000e+00
0.00000000e+00
0.00000000e+00
0.00000000e+00
0.00000000e+00
0.00000000e+00
0.00000000e+00
0.00000000e+00
0.00000000e+00
0.00000000e+00
0.00000000e+00
0.00000000e+00
0.00000000e+00
0.00000000e+00
0.00000000e+00
0.00000000e+00
0.00000000e+00
0.00000000e+00
0.00000000e+00
0.00000000e+00
0.00000000e+00
0.00000000e+00
0.00000000e+00
0.00000000e+00
0.00000000e+00
0.00000000e+00
0.00000000e+00
0.00000000e+00
0.00000000e+00
0.00000000e+00
0.00000000e+00
0.00000000e+00
0.00000000e+00
0.00000000e+00
0.00000000e+00
0.00000000e+00
0.00000000e+00
0.00000000e+00
0.00000000e+00
0.00000000e+00
0.00000000e+00
0.00000000e+00
2.66699201e+04
0.00000000e+00
0.00000000e+00
8.77301971e+03
4.79601167e+02
1.50196337e+04
0.00000000e+00
0.00000000e+00
0.00000000e+00
0.00000000e+00
4.85800523e+03
0.00000000e+00
0.00000000e+00
0.00000000e+00
0.00000000e+00
6.73196582e+02
0.00000000e+00
0.00000000e+00
0.00000000e+00
0.00000000e+00
0.00000000e+00
0.00000000e+00
0.00000000e+00
2.88341134e+02
0.00000000e+00
1.00069511e+03
0.00000000e+00
0.00000000e+00
0.00000000e+00
0.00000000e+00
4.54075238e+03
0.00000000e+00
0.00000000e+00
0.00000000e+00
0.00000000e+00
0.00000000e+00
0.00000000e+00
0.00000000e+00
0.00000000e+00
4.22109821e+03
0.00000000e+00
0.00000000e+00
0.00000000e+00
0.00000000e+00
5.86903662e+02
2.38462428e+03
1.46798979e+04
0.00000000e+00
0.00000000e+00
7.72007359e+03
0.00000000e+00
0.00000000e+00
0.00000000e+00
0.00000000e+00
0.00000000e+00
0.00000000e+00
0.00000000e+00
0.00000000e+00
0.00000000e+00
0.00000000e+00
0.00000000e+00
0.00000000e+00
0.00000000e+00
0.00000000e+00
0.00000000e+00
0.00000000e+00
0.00000000e+00
0.00000000e+00
0.00000000e+00
0.00000000e+00
0.00000000e+00
0.00000000e+00
0.00000000e+00
1.78254672e+03
0.00000000e+00
0.00000000e+00
3.07941942e+02
0.00000000e+00
0.00000000e+00
0.00000000e+00
0.00000000e+00
0.00000000e+00
0.00000000e+00
0.00000000e+00
0.00000000e+00
0.00000000e+00
0.00000000e+00
0.00000000e+00
3.28764409e+03
0.00000000e+00
0.00000000e+00
0.00000000e+00
0.00000000e+00
0.00000000e+00
0.00000000e+00
0.00000000e+00
0.00000000e+00
0.00000000e+00
0.00000000e+00
0.00000000e+00
0.00000000e+00
0.00000000e+00
0.00000000e+00
0.00000000e+00
0.00000000e+00
0.00000000e+00
0.00000000e+00
0.00000000e+00
0.00000000e+00
0.00000000e+00
0.00000000e+00
0.00000000e+00
0.00000000e+00
3.43615854e+03
0.00000000e+00
0.00000000e+00
3.14515459e+03
8.77504662e+02
0.00000000e+00
0.00000000e+00
1.01420121e+04
0.00000000e+00
0.00000000e+00
0.00000000e+00
0.00000000e+00
0.00000000e+00
0.00000000e+00
0.00000000e+00
0.00000000e+00
0.00000000e+00
0.00000000e+00
0.00000000e+00
0.00000000e+00
0.00000000e+00
0.00000000e+00
0.00000000e+00
0.00000000e+00
6.09754090e+03
0.00000000e+00
0.00000000e+00
0.00000000e+00
0.00000000e+00
0.00000000e+00
0.00000000e+00
0.00000000e+00
0.00000000e+00
0.00000000e+00
0.00000000e+00
0.00000000e+00
0.00000000e+00
0.00000000e+00
0.00000000e+00
0.00000000e+00
0.00000000e+00
2.25946467e+04
0.00000000e+00
0.00000000e+00
0.00000000e+00
6.25698578e+03
0.00000000e+00
0.00000000e+00
2.48805509e+04
0.00000000e+00
3.70961084e+03
0.00000000e+00
0.00000000e+00
0.00000000e+00
0.00000000e+00
0.00000000e+00
0.00000000e+00
3.11782120e+03
0.00000000e+00
0.00000000e+00
0.00000000e+00
0.00000000e+00
0.00000000e+00
0.00000000e+00
0.00000000e+00
0.00000000e+00
4.25609828e+03
0.00000000e+00
0.00000000e+00
0.00000000e+00
0.00000000e+00
0.00000000e+00
0.00000000e+00
0.00000000e+00
0.00000000e+00
0.00000000e+00
0.00000000e+00
0.00000000e+00
0.00000000e+00
0.00000000e+00
0.00000000e+00
0.00000000e+00
0.00000000e+00
0.00000000e+00
0.00000000e+00
0.00000000e+00
0.00000000e+00
0.00000000e+00
0.00000000e+00
0.00000000e+00
0.00000000e+00
0.00000000e+00
0.00000000e+00
0.00000000e+00
0.00000000e+00
0.00000000e+00
0.00000000e+00
0.00000000e+00
0.00000000e+00
0.00000000e+00
0.00000000e+00
0.00000000e+00
0.00000000e+00
0.00000000e+00
0.00000000e+00
0.00000000e+00
0.00000000e+00
0.00000000e+00
0.00000000e+00
0.00000000e+00
0.00000000e+00
0.00000000e+00
0.00000000e+00
0.00000000e+00
0.00000000e+00
0.00000000e+00
0.00000000e+00
0.00000000e+00
0.00000000e+00
0.00000000e+00
0.00000000e+00
0.00000000e+00
0.00000000e+00
0.00000000e+00
0.00000000e+00
0.00000000e+00
0.00000000e+00
0.00000000e+00
0.00000000e+00
0.00000000e+00
0.00000000e+00
0.00000000e+00
0.00000000e+00
0.00000000e+00
0.00000000e+00
0.00000000e+00
0.00000000e+00
0.00000000e+00
0.00000000e+00
0.00000000e+00
0.00000000e+00
0.00000000e+00
0.00000000e+00
0.00000000e+00
0.00000000e+00
0.00000000e+00
0.00000000e+00
0.00000000e+00
0.00000000e+00
0.00000000e+00
0.00000000e+00
0.00000000e+00
0.00000000e+00
0.00000000e+00
0.00000000e+00
0.00000000e+00
0.00000000e+00
0.00000000e+00
0.00000000e+00
0.00000000e+00
0.00000000e+00
0.00000000e+00
0.00000000e+00
0.00000000e+00
0.00000000e+00
0.00000000e+00
0.00000000e+00
0.00000000e+00
0.00000000e+00
0.00000000e+00
0.00000000e+00
0.00000000e+00
0.00000000e+00
0.00000000e+00
0.00000000e+00
0.00000000e+00
0.00000000e+00
0.00000000e+00
0.00000000e+00
0.00000000e+00
0.00000000e+00
0.00000000e+00
0.00000000e+00
0.00000000e+00
0.00000000e+00
0.00000000e+00
0.00000000e+00
0.00000000e+00
0.00000000e+00
0.00000000e+00
0.00000000e+00
0.00000000e+00
0.00000000e+00
0.00000000e+00
0.00000000e+00
0.00000000e+00
0.00000000e+00
0.00000000e+00
0.00000000e+00
0.00000000e+00
0.00000000e+00
0.00000000e+00
0.00000000e+00
0.00000000e+00
0.00000000e+00
0.00000000e+00
0.00000000e+00
0.00000000e+00
0.00000000e+00
0.00000000e+00
0.00000000e+00
0.00000000e+00
0.00000000e+00
0.00000000e+00
0.00000000e+00
0.00000000e+00
0.00000000e+00
0.00000000e+00
0.00000000e+00
0.00000000e+00
0.00000000e+00
0.00000000e+00
0.00000000e+00
0.00000000e+00
0.00000000e+00
0.00000000e+00
0.00000000e+00
0.00000000e+00
0.00000000e+00
0.00000000e+00
0.00000000e+00
0.00000000e+00
0.00000000e+00
0.00000000e+00
0.00000000e+00
0.00000000e+00
0.00000000e+00
0.00000000e+00
0.00000000e+00
0.00000000e+00
0.00000000e+00
0.00000000e+00
0.00000000e+00
0.00000000e+00
0.00000000e+00
0.00000000e+00
0.00000000e+00
0.00000000e+00
0.00000000e+00
0.00000000e+00
SCALARS type int 1
LOOKUP_TABLE default
1
1
1
1
1
1
1
1
1
1
1
1
1
1
1
1
1
1
1
1
1
1
1
1
1
1
1
1
1
1
1
1
1
1
1
1
1
1
1
1
1
1
1
1
1
1
1
1
1
1
1
1
1
1
1
1
1
1
1
1
1
1
1
1
1
1
1
1
1
1
1
1
1
1
1
1
1
1
1
1
1
0
0
0
0
0
0
0
0
0
0
0
0
0
0
0
0
0
0
0
1
1
1
0
0
0
0
0
0
0
0
0
0
0
0
0
0
0
0
0
0
0
1
1
1
0
0
0
0
0
0
0
0
0
0
0
0
0
0
0
0
0
0
0
1
1
1
0
0
0
0
0
0
0
0
0
0
0
0
0
0
0
0
0
0
0
1
1
1
0
0
0
0
0
0
0
0
0
0
0
0
0
0
0
0
0
0
0
1
1
1
0
0
0
0
0
0
0
0
0
0
0
0
0
0
0
0
0
0
0
1
1
1
0
0
0
0
0
0
0
0
0
0
0
0
0
0
0
0
0
0
0
1
1
1
0
0
0
0
0
0
0
0
0
0
0
0
0
0
0
0
0
0
0
1
1
1
0
0
0
0
0
0
0
0
0
0
0
0
0
0
0
0
0
0
0
1
1
1
1
1
1
1
1
1
1
1
1
1
1
1
1
1
1
1
1
1
1
1
1
1
1
1
1
1
1
1
1
1
1
1
1
1
1
1
1
1
1
1
1
1
1
1
1
1
1
1
1
1
1
1
1
1
1
1
1
1
1
1
1
1
1
1
1
1
1
1
1
1
1
1
1
1
1
1
1
1
1
1
1
1
1
1
1
1
1
1
1
1
1
1
1
1
1
1
1
1
1
1
1
1
1
1
1
1
1
1
1
1
1
1
1
1
1
1
1
1
1
1
1
1
1
1
1
1
1
1
1
1
1
1
1
1
1
1
1
1
1
1
1
1
1
1
1
1
1
1
1
1
1
1
1
1
1
1
1
1
1
1
1
1
1
1
1
VECTORS velocity double
0.00000000e+00 0.00000000e+00 0.0
0.00000000e+00 0.00000000e+00 0.0
0.00000000e+00 0.00000000e+00 0.0
0.00000000e+00 0.00000000e+00 0.0
0.00000000e+00 0.00000000e+00 0.0
0.00000000e+00 0.00000000e+00 0.0
0.00000000e+00 0.00000000e+00 0.0
0.00000000e+00 0.00000000e+00 0.0
0.00000000e+00 0.00000000e+00 0.0
0.00000000e+00 0.00000000e+00 0.0
0.00000000e+00 0.00000000e+00 0.0
0.00000000e+00 0.00000000e+00 0.0
0.00000000e+00 0.00000000e+00 0.0
0.00000000e+00 0.00000000e+00 0.0
0.00000000e+00 0.00000000e+00 0.0
0.00000000e+00 0.00000000e+00 0.0
0.00000000e+00 0.00000000e+00 0.0
0.00000000e+00 0.00000000e+00 0.0
0.00000000e+00 0.00000000e+00 0.0
0.00000000e+00 0.00000000e+00 0.0
0.00000000e+00 0.00000000e+00 0.0
0.00000000e+00 0.00000000e+00 0.0
0.00000000e+00 0.00000000e+00 0.0
0.00000000e+00 0.00000000e+00 0.0
0.00000000e+00 0.00000000e+00 0.0
0.00000000e+00 0.00000000e+00 0.0
0.00000000e+00 0.00000000e+00 0.0
0.00000000e+00 0.00000000e+00 0.0
0.00000000e+00 0.00000000e+00 0.0
0.00000000e+00 0.00000000e+00 0.0
0.00000000e+00 0.00000000e+00 0.0
0.00000000e+00 0.00000000e+00 0.0
0.00000000e+00 0.00000000e+00 0.0
0.00000000e+00 0.00000000e+00 0.0
0.00000000e+00 0.00000000e+00 0.0
0.00000000e+00 0.00000000e+00 0.0
0.00000000e+00 0.00000000e+00 0.0
0.00000000e+00 0.00000000e+00 0.0
0.00000000e+00 0.00000000e+00 0.0
0.00000000e+00 0.00000000e+00 0.0
0.00000000e+00 0.00000000e+00 0.0
0.00000000e+00 0.00000000e+00 0.0
0.00000000e+00 0.00000000e+00 0.0
0.00000000e+00 0.00000000e+00 0.0
0.00000000e+00 0.00000000e+00 0.0
0.00000000e+00 0.00000000e+00 0.0
0.00000000e+00 0.00000000e+00 0.0
0.00000000e+00 0.00000000e+00 0.0
0.00000000e+00 0.00000000e+00 0.0
0.00000000e+00 0.00000000e+00 0.0
0.00000000e+00 0.00000000e+00 0.0
0.00000000e+00 0.00000000e+00 0.0
0.00000000e+00 0.00000000e+00 0.0
0.00000000e+00 0.00000000e+00 0.0
0.00000000e+00 0.00000000e+00 0.0
0.00000000e+00 0.00000000e+00 0.0
0.00000000e+00 0.00000000e+00 0.0
0.00000000e+00 0.00000000e+00 0.0
0.00000000e+00 0.00000000e+00 0.0
0.00000000e+00 0.00000000e+00 0.0
0.00000000e+00 0.00000000e+00 0.0
0.00000000e+00 0.00000000e+00 0.0
0.00000000e+00 0.00000000e+00 0.0
0.00000000e+00 0.00000000e+00 0.0
0.00000000e+00 0.00000000e+00 0.0
0.00000000e+00 0.00000000e+00 0.0
0.00000000e+00 0.00000000e+00 0.0
0.00000000e+00 0.00000000e+00 0.0
0.00000000e+00 0.00000000e+00 0.0
0.00000000e+00 0.00000000e+00 0.0
0.00000000e+00 0.00000000e+00 0.0
0.00000000e+00 0.00000000e+00 0.0
0.00000000e+00 0.00000000e+00 0.0
0.00000000e+00 0.00000000e+00 0.0
0.00000000e+00 0.00000000e+00 0.0
0.00000000e+00 0.00000000e+00 0.0
0.00000000e+00 0.00000000e+00 0.0
0.00000000e+00 0.00000000e+00 0.0
0.00000000e+00 0.00000000e+00 0.0
0.00000000e+00 0.00000000e+00 0.0
0.00000000e+00 0.00000000e+00 0.0
1.51315843e-01 8.43566329e-02 0.0
4.57973689e-01 -5.22148115e-01 0.0
2.15073189e-01 3.17158677e-01 0.0
3.99078310e-01 -1.32421166e-01 0.0
5.65716087e-01 1.38427098e-01 0.0
1.16087022e+00 -1.18104514e+00 0.0
2.22378658e-01 1.00321907e+00 0.0
8.81910176e-01 -8.23857755e-01 0.0
-2.20407033e-01 5.57218587e-03 0.0
5.38996847e-01 7.36207913e-02 0.0
1.06227168e+00 -3.64284349e-01 0.0
6.34672584e-01 -1.39028690e-01 0.0
9.28005178e-01 1.24850997e-01 0.0
6.70616426e-01 -3.80355126e-02 0.0
8.93673111e-01 7.76592749e-01 0.0
8.20982500e-01 5.87677293e-01 0.0
3.96152839e-01 -2.87320010e-02 0.0
2.71370928e-01 -1.25894537e+00 0.0
4.46182320e-01 -6.87653850e-01 0.0
0.00000000e+00 0.00000000e+00 0.0
0.00000000e+00 0.00000000e+00 0.0
0.00000000e+00 0.00000000e+00 0.0