# vtk DataFile Version 3.0
MPS Simulation Step 2000
ASCII
DATASET UNSTRUCTURED_GRID
POINTS 437 double
-5.00000000e-02 -5.00000000e-02 0.0
-5.00000000e-02 -2.50000000e-02 0.0
-5.00000000e-02 0.00000000e+00 0.0
-5.00000000e-02 2.50000000e-02 0.0
-5.00000000e-02 5.00000000e-02 0.0
-5.00000000e-02 7.50000000e-02 0.0
-5.00000000e-02 1.00000000e-01 0.0
-5.00000000e-02 1.25000000e-01 0.0
-5.00000000e-02 1.50000000e-01 0.0
-5.00000000e-02 1.75000000e-01 0.0
-5.00000000e-02 2.00000000e-01 0.0
-5.00000000e-02 2.25000000e-01 0.0
-5.00000000e-02 2.50000000e-01 0.0
-5.00000000e-02 2.75000000e-01 0.0
-5.00000000e-02 3.00000000e-01 0.0
-5.00000000e-02 3.25000000e-01 0.0
-5.00000000e-02 3.50000000e-01 0.0
-5.00000000e-02 3.75000000e-01 0.0
-5.00000000e-02 4.00000000e-01 0.0
-5.00000000e-02 4.25000000e-01 0.0
-5.00000000e-02 4.50000000e-01 0.0
-5.00000000e-02 4.75000000e-01 0.0
-5.00000000e-02 5.00000000e-01 0.0
-5.00000000e-02 5.25000000e-01 0.0
-5.00000000e-02 5.50000000e-01 0.0
-5.00000000e-02 5.75000000e-01 0.0
-2.50000000e-02 -5.00000000e-02 0.0
-2.50000000e-02 -2.50000000e-02 0.0
-2.50000000e-02 0.00000000e+00 0.0
-2.50000000e-02 2.50000000e-02 0.0
-2.50000000e-02 5.00000000e-02 0.0
-2.50000000e-02 7.50000000e-02 0.0
-2.50000000e-02 1.00000000e-01 0.0
-2.50000000e-02 1.25000000e-01 0.0
-2.50000000e-02 1.50000000e-01 0.0
-2.50000000e-02 1.75000000e-01 0.0
-2.50000000e-02 2.00000000e-01 0.0
-2.50000000e-02 2.25000000e-01 0.0
-2.50000000e-02 2.50000000e-01 0.0
-2.50000000e-02 2.75000000e-01 0.0
-2.50000000e-02 3.00000000e-01 0.0
-2.50000000e-02 3.25000000e-01 0.0
-2.50000000e-02 3.50000000e-01 0.0
-2.50000000e-02 3.75000000e-01 0.0
-2.50000000e-02 4.00000000e-01 0.0
-2.50000000e-02 4.25000000e-01 0.0
-2.50000000e-02 4.50000000e-01 0.0
-2.50000000e-02 4.75000000e-01 0.0
-2.50000000e-02 5.00000000e-01 0.0
-2.50000000e-02 5.25000000e-01 0.0
-2.50000000e-02 5.50000000e-01 0.0
-2.50000000e-02 5.75000000e-01 0.0
0.00000000e+00 -5.00000000e-02 0.0
0.00000000e+00 -2.50000000e-02 0.0
0.00000000e+00 0.00000000e+00 0.0
0.00000000e+00 2.50000000e-02 0.0
0.00000000e+00 5.00000000e-02 0.0
0.00000000e+00 7.50000000e-02 0.0
0.00000000e+00 1.00000000e-01 0.0
0.00000000e+00 1.25000000e-01 0.0
0.00000000e+00 1.50000000e-01 0.0
0.00000000e+00 1.75000000e-01 0.0
0.00000000e+00 2.00000000e-01 0.0
0.00000000e+00 2.25000000e-01 0.0
0.00000000e+00 2.50000000e-01 0.0
0.00000000e+00 2.75000000e-01 0.0
0.00000000e+00 3.00000000e-01 0.0
0.00000000e+00 3.25000000e-01 0.0
0.00000000e+00 3.50000000e-01 0.0
0.00000000e+00 3.75000000e-01 0.0
0.00000000e+00 4.00000000e-01 0.0
0.00000000e+00 4.25000000e-01 0.0
0.00000000e+00 4.50000000e-01 0.0
0.00000000e+00 4.75000000e-01 0.0
0.00000000e+00 5.00000000e-01 0.0
0.00000000e+00 5.25000000e-01 0.0
0.00000000e+00 5.50000000e-01 0.0
0.00000000e+00 5.75000000e-01 0.0
2.50000000e-02 -5.00000000e-02 0.0
2.50000000e-02 -2.50000000e-02 0.0
2.50000000e-02 0.00000000e+00 0.0
2.55201124e-02 9.27057229e-02 0.0
4.03004241e-01 8.86913560e-02 0.0
1.52835699e-01 5.25253994e-02 0.0
4.08104034e-01 6.79630557e-02 0.0
5.78636547e-02 4.91425888e-02 0.0
3.92292500e-01 1.88438897e-02 0.0
1.05484033e-01 9.12108225e-02 0.0
2.21631617e-01 2.15505252e-02 0.0
2.61656512e-01 9.37976338e-02 0.0
4.29590178e-01 6.55228344e-02 0.0
2.86381041e-01 5.34832490e-02 0.0
3.73587832e-01 1.18671480e-01 0.0
2.82162815e-01 8.19869317e-02 0.0
2.26550192e-02 2.77624972e-02 0.0
1.76588978e-01 1.95812155e-02 0.0
2.89880595e-01 2.69962476e-02 0.0
7.76476222e-02 4.54020831e-02 0.0
4.75200027e-02 2.02701628e-02 0.0
7.01232918e-02 5.77804825e-02 0.0
5.00000000e-02 -5.00000000e-02 0.0
5.00000000e-02 -2.50000000e-02 0.0
5.00000000e-02 0.00000000e+00 0.0
4.54473697e-01 4.84665452e-02 0.0
6.07875938e-01 6.00824353e-02 0.0
3.30859862e-01 7.60517476e-02 0.0
4.39127599e-01 5.32969385e-02 0.0
4.45381108e-01 1.61098643e-01 0.0
4.00673956e-01 5.48856058e-02 0.0
5.00400833e-01 6.89089412e-02 0.0
5.97014453e-01 7.09018916e-02 0.0
2.62151441e-01 1.77629465e-02 0.0
1.35813651e-01 9.72104712e-02 0.0
3.70288994e-01 2.06172849e-02 0.0
1.94404298e-01 5.48129790e-02 0.0
6.08458996e-01 2.03504644e-02 0.0
3.73972662e-01 8.99290044e-02 0.0
3.40840242e-01 1.76479938e-02 0.0
5.79729199e-02 1.22546367e-01 0.0
6.91641692e-02 2.04177374e-02 0.0
1.27848717e-01 6.90632086e-02 0.0
2.62340346e-01 7.87083684e-02 0.0
7.50000000e-02 -5.00000000e-02 0.0
7.50000000e-02 -2.50000000e-02 0.0
7.50000000e-02 0.00000000e+00 0.0
1.09044800e-01 4.37645096e-02 0.0
8.04843602e-01 2.83936556e-02 0.0
2.91131650e-02 7.38458464e-02 0.0
3.17479495e-01 6.03839799e-02 0.0
8.39772925e-01 4.64220659e-02 0.0
6.51165916e-01 4.92161690e-02 0.0
8.85531993e-01 1.27786682e-01 0.0
4.93219878e-01 9.34747748e-02 0.0
6.10458339e-01 1.11391714e-01 0.0
4.62739281e-01 1.91455597e-02 0.0
5.48276553e-01 4.92316370e-02 0.0
5.62579982e-01 1.07910440e-01 0.0
1.18620108e-01 1.85153891e-02 0.0
6.40444465e-01 1.12068853e-01 0.0
5.25633604e-01 9.92107901e-02 0.0
4.35258091e-01 1.49521955e-02 0.0
3.61234183e-01 9.41096130e-02 0.0
2.50010220e-01 4.00513028e-02 0.0
2.09562437e-01 6.17202774e-02 0.0
1.00000000e-01 -5.00000000e-02 0.0
1.00000000e-01 -2.50000000e-02 0.0
1.00000000e-01 0.00000000e+00 0.0
4.27515709e-01 1.06279908e-01 0.0
6.72429783e-01 1.24146024e-01 0.0
6.19731834e-01 4.32583664e-02 0.0
8.86090849e-01 7.14773346e-02 0.0
8.73953749e-01 5.83302842e-02 0.0
4.79199451e-01 5.87190625e-02 0.0
9.11162972e-01 5.34071499e-02 0.0
9.39871411e-01 8.98716035e-02 0.0
9.73003178e-01 1.40838999e-01 0.0
5.77879497e-01 2.72783291e-01 0.0
6.83653249e-01 6.16222024e-02 0.0
6.79767107e-01 1.72075424e-02 0.0
9.28780140e-01 7.01644537e-02 0.0
6.31680381e-01 1.30759312e-02 0.0
6.19875748e-01 9.27923070e-02 0.0
9.09960824e-01 1.48320591e-01 0.0
6.65541527e-01 7.91469690e-02 0.0
6.98739066e-01 6.53583218e-02 0.0
6.01090749e-01 1.25740552e-01 0.0
1.25000000e-01 -5.00000000e-02 0.0
1.25000000e-01 -2.50000000e-02 0.0
1.25000000e-01 0.00000000e+00 0.0
8.22363013e-01 4.90673231e-02 0.0
3.05791434e-01 6.92672547e-02 0.0
6.28495663e-01 3.20029083e-01 0.0
7.27284257e-01 1.40203528e-01 0.0
9.22650220e-01 2.73343017e-02 0.0
7.68509296e-01 9.72536612e-02 0.0
6.60809316e-01 2.27230306e-01 0.0
9.72570628e-01 2.75665095e-01 0.0
6.59612253e-01 1.33326947e-01 0.0
7.79844143e-01 1.52033201e-01 0.0
6.59612262e-01 6.53061307e-02 0.0
7.20948296e-01 6.63337110e-02 0.0
7.36904817e-01 2.20000295e-02 0.0
8.88726742e-01 9.47493554e-02 0.0
7.73494377e-01 4.82376676e-02 0.0
8.67221395e-01 4.12236687e-02 0.0
5.34377221e-01 1.75600502e-02 0.0
7.83923414e-01 1.48271168e-02 0.0
3.72375198e-01 4.54549493e-02 0.0
1.50000000e-01 -5.00000000e-02 0.0
1.50000000e-01 -2.50000000e-02 0.0
1.50000000e-01 0.00000000e+00 0.0
9.58259850e-01 4.48381753e-02 0.0
9.27712831e-01 1.06225530e-01 0.0
7.57198179e-01 7.25340080e-02 0.0
8.68214893e-01 3.15728153e-01 0.0
9.25296928e-01 1.62084770e-01 0.0
8.05514098e-01 1.18707568e-01 0.0
9.84606524e-01 1.34722098e-02 0.0
8.72015157e-01 1.43537929e-01 0.0
7.41531337e-01 7.18279118e-02 0.0
9.56304810e-01 1.29840781e-01 0.0
7.83067231e-01 9.55519043e-02 0.0
8.74354652e-01 1.55913981e-02 0.0
8.28579521e-01 1.05944663e-01 0.0
7.04680595e-01 1.73090511e-01 0.0
8.14802304e-01 7.86592793e-02 0.0
6.85176922e-01 1.77156372e-01 0.0
8.01327939e-01 7.30216466e-02 0.0
7.38041812e-01 4.65780613e-02 0.0
1.75000000e-01 -5.00000000e-02 0.0
1.75000000e-01 -2.50000000e-02 0.0
1.75000000e-01 0.00000000e+00 0.0
8.50230197e-01 3.18513806e-01 0.0
8.96847143e-01 3.04113887e-01 0.0
4.59983050e-01 1.44929122e-01 0.0
9.69783802e-01 1.61543332e-01 0.0
7.85338333e-01 1.31835368e-01 0.0
8.39406303e-01 7.07333662e-02 0.0
9.26009205e-01 1.26850931e-01 0.0
7.01149395e-01 2.92592153e-01 0.0
8.42501895e-01 1.24105266e-01 0.0
7.07886711e-01 3.99877179e-02 0.0
5.67785493e-01 1.87133483e-01 0.0
7.24704503e-01 1.03952543e-01 0.0
9.42267046e-01 4.05581373e-02 0.0
7.23168679e-01 1.24856882e-01 0.0
8.09497983e-01 1.40480260e-01 0.0
5.64191591e-01 2.71123777e-01 0.0
8.46132961e-01 1.07192221e-01 0.0
2.00000000e-01 -5.00000000e-02 0.0
2.00000000e-01 -2.50000000e-02 0.0
2.00000000e-01 0.00000000e+00 0.0
9.73154758e-01 6.97089330e-02 0.0
2.16006113e-01 7.29976689e-02 0.0
9.01942200e-01 3.03845465e-02 0.0
6.98049625e-01 1.85606361e-01 0.0
3.90846355e-01 1.49215407e-01 0.0
7.39368405e-01 4.35899746e-01 0.0
9.36375875e-01 1.56434775e-01 0.0
5.74015018e-01 2.08152806e-01 0.0
8.58154562e-01 1.87308676e-01 0.0
3.36650833e-01 1.05997851e-01 0.0
1.29322947e-01 4.16517660e-02 0.0
7.44256421e-01 1.29535900e-01 0.0
7.07772351e-01 1.01548453e-01 0.0
7.40133298e-01 1.63957603e-01 0.0
9.87106146e-01 9.82925883e-02 0.0
5.56551276e-01 1.74170796e-01 0.0
8.33713129e-01 1.55881339e-02 0.0
8.60743899e-01 8.71270819e-02 0.0
2.25000000e-01 -5.00000000e-02 0.0
2.25000000e-01 -2.50000000e-02 0.0
2.25000000e-01 0.00000000e+00 0.0
5.79288729e-01 1.30204948e-02 0.0
7.96613328e-01 1.95876410e-01 0.0
8.28799288e-01 3.06765914e-01 0.0
6.47987110e-01 2.06773328e-01 0.0
8.87564508e-01 1.65651382e-01 0.0
5.64300780e-01 4.92019705e-02 0.0
7.67858620e-01 1.72417456e-01 0.0
8.43476008e-01 1.84065498e-01 0.0
7.06113570e-01 1.88438238e-02 0.0
8.18482137e-01 1.82511922e-01 0.0
7.54551806e-01 1.69569979e-01 0.0
6.01493993e-01 3.05395397e-01 0.0
7.63211860e-01 3.36921036e-02 0.0
9.12950413e-01 8.63331954e-02 0.0
6.22751143e-01 7.50331547e-02 0.0
9.02005813e-01 1.19180884e-01 0.0
2.50000000e-01 -5.00000000e-02 0.0
2.50000000e-01 -2.50000000e-02 0.0
2.50000000e-01 0.00000000e+00 0.0
2.75000000e-01 -5.00000000e-02 0.0
2.75000000e-01 -2.50000000e-02 0.0
2.75000000e-01 0.00000000e+00 0.0
3.00000000e-01 -5.00000000e-02 0.0
3.00000000e-01 -2.50000000e-02 0.0
3.00000000e-01 0.00000000e+00 0.0
3.25000000e-01 -5.00000000e-02 0.0
3.25000000e-01 -2.50000000e-02 0.0
3.25000000e-01 0.00000000e+00 0.0
3.50000000e-01 -5.00000000e-02 0.0
3.50000000e-01 -2.50000000e-02 0.0
3.50000000e-01 0.00000000e+00 0.0
3.75000000e-01 -5.00000000e-02 0.0
3.75000000e-01 -2.50000000e-02 0.0
3.75000000e-01 0.00000000e+00 0.0
4.00000000e-01 -5.00000000e-02 0.0
4.00000000e-01 -2.50000000e-02 0.0
4.00000000e-01 0.00000000e+00 0.0
4.25000000e-01 -5.00000000e-02 0.0
4.25000000e-01 -2.50000000e-02 0.0
4.25000000e-01 0.00000000e+00 0.0
4.50000000e-01 -5.00000000e-02 0.0
4.50000000e-01 -2.50000000e-02 0.0
4.50000000e-01 0.00000000e+00 0.0
4.75000000e-01 -5.00000000e-02 0.0
4.75000000e-01 -2.50000000e-02 0.0
4.75000000e-01 0.00000000e+00 0.0
5.00000000e-01 -5.00000000e-02 0.0
5.00000000e-01 -2.50000000e-02 0.0
5.00000000e-01 0.00000000e+00 0.0
5.25000000e-01 -5.00000000e-02 0.0
5.25000000e-01 -2.50000000e-02 0.0
5.25000000e-01 0.00000000e+00 0.0
5.50000000e-01 -5.00000000e-02 0.0
5.50000000e-01 -2.50000000e-02 0.0
5.50000000e-01 0.00000000e+00 0.0
5.75000000e-01 -5.00000000e-02 0.0
5.75000000e-01 -2.50000000e-02 0.0
5.75000000e-01 0.00000000e+00 0.0
6.00000000e-01 -5.00000000e-02 0.0
6.00000000e-01 -2.50000000e-02 0.0
6.00000000e-01 0.00000000e+00 0.0
6.25000000e-01 -5.00000000e-02 0.0
6.25000000e-01 -2.50000000e-02 0.0
6.25000000e-01 0.00000000e+00 0.0
6.50000000e-01 -5.00000000e-02 0.0
6.50000000e-01 -2.50000000e-02 0.0
6.50000000e-01 0.00000000e+00 0.0
6.75000000e-01 -5.00000000e-02 0.0
6.75000000e-01 -2.50000000e-02 0.0
6.75000000e-01 0.00000000e+00 0.0
7.00000000e-01 -5.00000000e-02 0.0
7.00000000e-01 -2.50000000e-02 0.0
7.00000000e-01 0.00000000e+00 0.0
7.25000000e-01 -5.00000000e-02 0.0
7.25000000e-01 -2.50000000e-02 0.0
7.25000000e-01 0.00000000e+00 0.0
7.50000000e-01 -5.00000000e-02 0.0
7.50000000e-01 -2.50000000e-02 0.0
7.50000000e-01 0.00000000e+00 0.0
7.75000000e-01 -5.00000000e-02 0.0
7.75000000e-01 -2.50000000e-02 0.0
7.75000000e-01 0.00000000e+00 0.0
8.00000000e-01 -5.00000000e-02 0.0
8.00000000e-01 -2.50000000e-02 0.0
8.00000000e-01 0.00000000e+00 0.0
8.25000000e-01 -5.00000000e-02 0.0
8.25000000e-01 -2.50000000e-02 0.0
8.25000000e-01 0.00000000e+00 0.0
8.50000000e-01 -5.00000000e-02 0.0
8.50000000e-01 -2.50000000e-02 0.0
8.50000000e-01 0.00000000e+00 0.0
8.75000000e-01 -5.00000000e-02 0.0
8.75000000e-01 -2.50000000e-02 0.0
8.75000000e-01 0.00000000e+00 0.0
9.00000000e-01 -5.00000000e-02 0.0
9.00000000e-01 -2.50000000e-02 0.0
9.00000000e-01 0.00000000e+00 0.0
9.25000000e-01 -5.00000000e-02 0.0
9.25000000e-01 -2.50000000e-02 0.0
9.25000000e-01 0.00000000e+00 0.0
9.50000000e-01 -5.00000000e-02 0.0
9.50000000e-01 -2.50000000e-02 0.0
9.50000000e-01 0.00000000e+00 0.0
9.75000000e-01 -5.00000000e-02 0.0
9.75000000e-01 -2.50000000e-02 0.0
9.75000000e-01 0.00000000e+00 0.0
1.00000000e+00 -5.00000000e-02 0.0
1.00000000e+00 -2.50000000e-02 0.0
1.00000000e+00 0.00000000e+00 0.0
1.00000000e+00 2.50000000e-02 0.0
1.00000000e+00 5.00000000e-02 0.0
1.00000000e+00 7.50000000e-02 0.0
1.00000000e+00 1.00000000e-01 0.0
1.00000000e+00 1.25000000e-01 0.0
1.00000000e+00 1.50000000e-01 0.0
1.00000000e+00 1.75000000e-01 0.0
1.00000000e+00 2.00000000e-01 0.0
1.00000000e+00 2.25000000e-01 0.0
1.00000000e+00 2.50000000e-01 0.0
1.00000000e+00 2.75000000e-01 0.0
1.00000000e+00 3.00000000e-01 0.0
1.00000000e+00 3.25000000e-01 0.0
1.00000000e+00 3.50000000e-01 0.0
1.00000000e+00 3.75000000e-01 0.0
1.00000000e+00 4.00000000e-01 0.0
1.00000000e+00 4.25000000e-01 0.0
1.00000000e+00 4.50000000e-01 0.0
1.00000000e+00 4.75000000e-01 0.0
1.00000000e+00 5.00000000e-01 0.0
1.00000000e+00 5.25000000e-01 0.0
1.00000000e+00 5.50000000e-01 0.0
1.00000000e+00 5.75000000e-01 0.0
1.02500000e+00 -5.00000000e-02 0.0
1.02500000e+00 -2.50000000e-02 0.0
1.02500000e+00 0.00000000e+00 0.0
1.02500000e+00 2.50000000e-02 0.0
1.02500000e+00 5.00000000e-02 0.0
1.02500000e+00 7.50000000e-02 0.0
1.02500000e+00 1.00000000e-01 0.0
1.02500000e+00 1.25000000e-01 0.0
1.02500000e+00 1.50000000e-01 0.0
1.02500000e+00 1.75000000e-01 0.0
1.02500000e+00 2.00000000e-01 0.0
1.02500000e+00 2.25000000e-01 0.0
1.02500000e+00 2.50000000e-01 0.0
1.02500000e+00 2.75000000e-01 0.0
1.02500000e+00 3.00000000e-01 0.0
1.02500000e+00 3.25000000e-01 0.0
1.02500000e+00 3.50000000e-01 0.0
1.02500000e+00 3.75000000e-01 0.0
1.02500000e+00 4.00000000e-01 0.0
1.02500000e+00 4.25000000e-01 0.0
1.02500000e+00 4.50000000e-01 0.0
1.02500000e+00 4.75000000e-01 0.0
1.02500000e+00 5.00000000e-01 0.0
1.02500000e+00 5.25000000e-01 0.0
1.02500000e+00 5.50000000e-01 0.0
1.02500000e+00 5.75000000e-01 0.0
1.05000000e+00 -5.00000000e-02 0.0
1.05000000e+00 -2.50000000e-02 0.0
1.05000000e+00 0.00000000e+00 0.0
1.05000000e+00 2.50000000e-02 0.0
1.05000000e+00 5.00000000e-02 0.0
1.05000000e+00 7.50000000e-02 0.0
1.05000000e+00 1.00000000e-01 0.0
1.05000000e+00 1.25000000e-01 0.0
1.05000000e+00 1.50000000e-01 0.0
1.05000000e+00 1.75000000e-01 0.0
1.05000000e+00 2.00000000e-01 0.0
1.05000000e+00 2.25000000e-01 0.0
1.05000000e+00 2.50000000e-01 0.0
1.05000000e+00 2.75000000e-01 0.0
1.05000000e+00 3.00000000e-01 0.0
1.05000000e+00 3.25000000e-01 0.0
1.05000000e+00 3.50000000e-01 0.0
1.05000000e+00 3.75000000e-01 0.0
1.05000000e+00 4.00000000e-01 0.0
1.05000000e+00 4.25000000e-01 0.0
1.05000000e+00 4.50000000e-01 0.0
1.05000000e+00 4.75000000e-01 0.0
1.05000000e+00 5.00000000e-01 0.0
1.05000000e+00 5.25000000e-01 0.0
1.05000000e+00 5.50000000e-01 0.0
1.05000000e+00 5.75000000e-01 0.0
CELLS 437 874
1 0
1 1
1 2
1 3
1 4
1 5
1 6
1 7
1 8
1 9
1 10
1 11
1 12
1 13
1 14
1 15
1 16
1 17
1 18
1 19
1 20
1 21
1 22
1 23
1 24
1 25
1 26
1 27
1 28
1 29
1 30
1 31
1 32
1 33
1 34
1 35
1 36
1 37
1 38
1 39
1 40
1 41
1 42
1 43
1 44
1 45
1 46
1 47
1 48
1 49
1 50
1 51
1 52
1 53
1 54
1 55
1 56
1 57
1 58
1 59
1 60
1 61
1 62
1 63
1 64
1 65
1 66
1 67
1 68
1 69
1 70
1 71
1 72
1 73
1 74
1 75
1 76
1 77
1 78
1 79
1 80
1 81
1 82
1 83
1 84
1 85
1 86
1 87
1 88
1 89
1 90
1 91
1 92
1 93
1 94
1 95
1 96
1 97
1 98
1 99
1 100
1 101
1 102
1 103
1 104
1 105
1 106
1 107
1 108
1 109
1 110
1 111
1 112
1 113
1 114
1 115
1 116
1 117
1 118
1 119
1 120
1 121
1 122
1 123
1 124
1 125
1 126
1 127
1 128
1 129
1 130
1 131
1 132
1 133
1 134
1 135
1 136
1 137
1 138
1 139
1 140
1 141
1 142
1 143
1 144
1 145
1 146
1 147
1 148
1 149
1 150
1 151
1 152
1 153
1 154
1 155
1 156
1 157
1 158
1 159
1 160
1 161
1 162
1 163
1 164
1 165
1 166
1 167
1 168
1 169
1 170
1 171
1 172
1 173
1 174
1 175
1 176
1 177
1 178
1 179
1 180
1 181
1 182
1 183
1 184
1 185
1 186
1 187
1 188
1 189
1 190
1 191
1 192
1 193
1 194
1 195
1 196
1 197
1 198
1 199
1 200
1 201
1 202
1 203
1 204
1 205
1 206
1 207
1 208
1 209
1 210
1 211
1 212
1 213
1 214
1 215
1 216
1 217
1 218
1 219
1 220
1 221
1 222
1 223
1 224
1 225
1 226
1 227
1 228
1 229
1 230
1 231
1 232
1 233
1 234
1 235
1 236
1 237
1 238
1 239
1 240
1 241
1 242
1 243
1 244
1 245
1 246
1 247
1 248
1 249
1 250
1 251
1 252
1 253
1 254
1 255
1 256
1 257
1 258
1 259
1 260
1 261
1 262
1 263
1 264
1 265
1 266
1 267
1 268
1 269
1 270
1 271
1 272
1 273
1 274
1 275
1 276
1 277
1 278
1 279
1 280
1 281
1 282
1 283
1 284
1 285
1 286
1 287
1 288
1 289
1 290
1 291
1 292
1 293
1 294
1 295
1 296
1 297
1 298
1 299
1 300
1 301
1 302
1 303
1 304
1 305
1 306
1 307
1 308
1 309
1 310
1 311
1 312
1 313
1 314
1 315
1 316
1 317
1 318
1 319
1 320
1 321
1 322
1 323
1 324
1 325
1 326
1 327
1 328
1 329
1 330
1 331
1 332
1 333
1 334
1 335
1 336
1 337
1 338
1 339
1 340
1 341
1 342
1 343
1 344
1 345
1 346
1 347
1 348
1 349
1 350
1 351
1 352
1 353
1 354
1 355
1 356
1 357
1 358
1 359
1 360
1 361
1 362
1 363
1 364
1 365
1 366
1 367
1 368
1 369
1 370
1 371
1 372
1 373
1 374
1 375
1 376
1 377
1 378
1 379
1 380
1 381
1 382
1 383
1 384
1 385
1 386
1 387
1 388
1 389
1 390
1 391
1 392
1 393
1 394
1 395
1 396
1 397
1 398
1 399
1 400
1 401
1 402
1 403
1 404
1 405
1 406
1 407
1 408
1 409
1 410
1 411
1 412
1 413
1 414
1 415
1 416
1 417
1 418
1 419
1 420
1 421
1 422
1 423
1 424
1 425
1 426
1 427
1 428
1 429
1 430
1 431
1 432
1 433
1 434
1 435
1 436
CELL_TYPES 437
1
1
1
1
1
1
1
1
1
1
1
1
1
1
1
1
1
1
1
1
1
1
1
1
1
1
1
1
1
1
1
1
1
1
1
1
1
1
1
1
1
1
1
1
1
1
1
1
1
1
1
1
1
1
1
1
1
1
1
1
1
1
1
1
1
1
1
1
1
1
1
1
1
1
1
1
1
1
1
1
1
1
1
1
1
1
1
1
1
1
1
1
1
1
1
1
1
1
1
1
1
1
1
1
1
1
1
1
1
1
1
1
1
1
1
1
1
1
1
1
1
1
1
1
1
1
1
1
1
1
1
1
1
1
1
1
1
1
1
1
1
1
1
1
1
1
1
1
1
1
1
1
1
1
1
1
1
1
1
1
1
1
1
1
1
1
1
1
1
1
1
1
1
1
1
1
1
1
1
1
1
1
1
1
1
1
1
1
1
1
1
1
1
1
1
1
1
1
1
1
1
1
1
1
1
1
1
1
1
1
1
1
1
1
1
1
1
1
1
1
1
1
1
1
1
1
1
1
1
1
1
1
1
1
1
1
1
1
1
1
1
1
1
1
1
1
1
1
1
1
1
1
1
1
1
1
1
1
1
1
1
1
1
1
1
1
1
1
1
1
1
1
1
1
1
1
1
1
1
1
1
1
1
1
1
1
1
1
1
1
1
1
1
1
1
1
1
1
1
1
1
1
1
1
1
1
1
1
1
1
1
1
1
1
1
1
1
1
1
1
1
1
1
1
1
1
1
1
1
1
1
1
1
1
1
1
1
1
1
1
1
1
1
1
1
1
1
1
1
1
1
1
1
1
1
1
1
1
1
1
1
1
1
1
1
1
1
1
1
1
1
1
1
1
1
1
1
1
1
1
1
1
1
1
1
1
1
1
1
1
1
1
1
1
1
1
1
1
1
1
1
1
1
1
1
1
1
1
1
1
1
1
1
1
1
1
1
1
1
1
1
1
1
1
1
1
1
1
1
1
1
1
1
1
1
1
1
POINT_DATA 437
SCALARS pressure double 1
LOOKUP_TABLE default
0.00000000e+00
0.00000000e+00
0.00000000e+00
0.00000000e+00
0.00000000e+00
0.00000000e+00
0.00000000e+00
0.00000000e+00
0.00000000e+00
0.00000000e+00
0.00000000e+00
0.00000000e+00
0.00000000e+00
0.00000000e+00
0.00000000e+00
0.00000000e+00
0.00000000e+00
0.00000000e+00
0.00000000e+00
0.00000000e+00
0.00000000e+00
0.00000000e+00
0.00000000e+00
0.00000000e+00
0.00000000e+00
0.00000000e+00
0.00000000e+00
0.00000000e+00
0.00000000e+00
0.00000000e+00
0.00000000e+00
0.00000000e+00
0.00000000e+00
0.00000000e+00
0.00000000e+00
0.00000000e+00
0.00000000e+00
0.00000000e+00
0.00000000e+00
0.00000000e+00
0.00000000e+00
0.00000000e+00
0.00000000e+00
0.00000000e+00
0.00000000e+00
0.00000000e+00
0.00000000e+00
0.00000000e+00
0.00000000e+00
0.00000000e+00
0.00000000e+00
0.00000000e+00
0.00000000e+00
0.00000000e+00
0.00000000e+00
0.00000000e+00
0.00000000e+00
0.00000000e+00
0.00000000e+00
0.00000000e+00
0.00000000e+00
0.00000000e+00
0.00000000e+00
0.00000000e+00
0.00000000e+00
0.00000000e+00
0.00000000e+00
0.00000000e+00
0.00000000e+00
0.00000000e+00
0.00000000e+00
0.00000000e+00
0.00000000e+00
0.00000000e+00
0.00000000e+00
0.00000000e+00
0.00000000e+00
0.00000000e+00
0.00000000e+00
0.00000000e+00
0.00000000e+00
0.00000000e+00
0.00000000e+00
0.00000000e+00
5.35985300e+03
0.00000000e+00
0.00000000e+00
0.00000000e+00
0.00000000e+00
0.00000000e+00
0.00000000e+00
0.00000000e+00
0.00000000e+00
0.00000000e+00
0.00000000e+00
0.00000000e+00
0.00000000e+00
1.78334942e+03
1.07697787e+04
0.00000000e+00
0.00000000e+00
0.00000000e+00
0.00000000e+00
0.00000000e+00
5.26086998e+03
0.00000000e+00
0.00000000e+00
0.00000000e+00
0.00000000e+00
0.00000000e+00
0.00000000e+00
0.00000000e+00
0.00000000e+00
0.00000000e+00
0.00000000e+00
1.11487996e+03
0.00000000e+00
0.00000000e+00
0.00000000e+00
1.17752915e+04
0.00000000e+00
0.00000000e+00
0.00000000e+00
0.00000000e+00
0.00000000e+00
0.00000000e+00
0.00000000e+00
0.00000000e+00
0.00000000e+00
0.00000000e+00
0.00000000e+00
0.00000000e+00
0.00000000e+00
0.00000000e+00
0.00000000e+00
0.00000000e+00
0.00000000e+00
0.00000000e+00
0.00000000e+00
0.00000000e+00
0.00000000e+00
0.00000000e+00
0.00000000e+00
0.00000000e+00
0.00000000e+00
0.00000000e+00
0.00000000e+00
0.00000000e+00
0.00000000e+00
0.00000000e+00
0.00000000e+00
4.06586400e+03
0.00000000e+00
0.00000000e+00
0.00000000e+00
0.00000000e+00
0.00000000e+00
1.27600928e+03
0.00000000e+00
0.00000000e+00
2.05326291e+04
0.00000000e+00
0.00000000e+00
0.00000000e+00
2.93537598e+03
0.00000000e+00
0.00000000e+00
0.00000000e+00
0.00000000e+00
0.00000000e+00
0.00000000e+00
0.00000000e+00
0.00000000e+00
0.00000000e+00
0.00000000e+00
0.00000000e+00
0.00000000e+00
0.00000000e+00
0.00000000e+00
9.16150480e+02
0.00000000e+00
0.00000000e+00
0.00000000e+00
0.00000000e+00
0.00000000e+00
0.00000000e+00
1.65851293e+04
0.00000000e+00
0.00000000e+00
0.00000000e+00
0.00000000e+00
0.00000000e+00
0.00000000e+00
0.00000000e+00
0.00000000e+00
0.00000000e+00
0.00000000e+00
2.46478876e+04
0.00000000e+00
9.28372806e+03
0.00000000e+00
0.00000000e+00
6.90676692e+03
1.40820701e+03
0.00000000e+00
3.09767896e+02
0.00000000e+00
0.00000000e+00
0.00000000e+00
0.00000000e+00
0.00000000e+00
0.00000000e+00
0.00000000e+00
0.00000000e+00
0.00000000e+00
0.00000000e+00
0.00000000e+00
0.00000000e+00
0.00000000e+00
0.00000000e+00
0.00000000e+00
0.00000000e+00
0.00000000e+00
0.00000000e+00
0.00000000e+00
0.00000000e+00
0.00000000e+00
0.00000000e+00
3.22020458e+03
0.00000000e+00
0.00000000e+00
0.00000000e+00
0.00000000e+00
0.00000000e+00
0.00000000e+00
0.00000000e+00
0.00000000e+00
0.00000000e+00
0.00000000e+00
0.00000000e+00
0.00000000e+00
0.00000000e+00
0.00000000e+00
0.00000000e+00
0.00000000e+00
0.00000000e+00
2.43438814e+03
0.00000000e+00
5.27143302e+03
0.00000000e+00
0.00000000e+00
0.00000000e+00
0.00000000e+00
6.42786332e+03
0.00000000e+00
0.00000000e+00
0.00000000e+00
0.00000000e+00
0.00000000e+00
0.00000000e+00
0.00000000e+00
1.37222577e+04
0.00000000e+00
5.82334957e+03
0.00000000e+00
0.00000000e+00
1.90359511e+03
5.28171537e+03
2.74066508e+02
0.00000000e+00
0.00000000e+00
0.00000000e+00
0.00000000e+00
0.00000000e+00
0.00000000e+00
0.00000000e+00
0.00000000e+00
0.00000000e+00
0.00000000e+00
0.00000000e+00
0.00000000e+00
0.00000000e+00
0.00000000e+00
0.00000000e+00
0.00000000e+00
0.00000000e+00
0.00000000e+00
0.00000000e+00
0.00000000e+00
0.00000000e+00
0.00000000e+00
0.00000000e+00
0.00000000e+00
0.00000000e+00
0.00000000e+00
0.00000000e+00
0.00000000e+00
0.00000000e+00
0.00000000e+00
0.00000000e+00
0.00000000e+00
0.00000000e+00
0.00000000e+00
0.00000000e+00
0.00000000e+00
0.00000000e+00
0.00000000e+00
0.00000000e+00
0.00000000e+00
0.00000000e+00
0.00000000e+00
0.00000000e+00
0.00000000e+00
0.00000000e+00
0.00000000e+00
0.00000000e+00
0.00000000e+00
0.00000000e+00
0.00000000e+00
0.00000000e+00
0.00000000e+00
0.00000000e+00
0.00000000e+00
0.00000000e+00
0.00000000e+00
0.00000000e+00
0.00000000e+00
0.00000000e+00
0.00000000e+00
0.00000000e+00
0.00000000e+00
0.00000000e+00
0.00000000e+00
0.00000000e+00
0.00000000e+00
0.00000000e+00
0.00000000e+00
0.00000000e+00
0.00000000e+00
0.00000000e+00
0.00000000e+00
0.00000000e+00
0.00000000e+00
0.00000000e+00
0.00000000e+00
0.00000000e+00
0.00000000e+00
0.00000000e+00
0.00000000e+00
0.00000000e+00
0.00000000e+00
0.00000000e+00
0.00000000e+00
0.00000000e+00
0.00000000e+00
0.00000000e+00
0.00000000e+00
0.00000000e+00
0.00000000e+00
0.00000000e+00
0.00000000e+00
0.00000000e+00
0.00000000e+00
0.00000000e+00
0.00000000e+00
0.00000000e+00
0.00000000e+00
0.00000000e+00
0.00000000e+00
0.00000000e+00
0.00000000e+00
0.00000000e+00
0.00000000e+00
0.00000000e+00
0.00000000e+00
0.00000000e+00
0.00000000e+00
0.00000000e+00
0.00000000e+00
0.00000000e+00
0.00000000e+00
0.00000000e+00
0.00000000e+00
0.00000000e+00
0.00000000e+00
0.00000000e+00
0.00000000e+00
0.00000000e+00
0.00000000e+00
0.00000000e+00
0.00000000e+00
0.00000000e+00
0.00000000e+00
0.00000000e+00
0.00000000e+00
0.00000000e+00
0.00000000e+00
0.00000000e+00
0.00000000e+00
0.00000000e+00
0.00000000e+00
0.00000000e+00
0.00000000e+00
0.00000000e+00
0.00000000e+00
0.00000000e+00
0.00000000e+00
0.00000000e+00
0.00000000e+00
0.00000000e+00
0.00000000e+00
0.00000000e+00
0.00000000e+00
0.00000000e+00
0.00000000e+00
0.00000000e+00
0.00000000e+00
0.00000000e+00
0.00000000e+00
0.00000000e+00
0.00000000e+00
0.00000000e+00
0.00000000e+00
0.00000000e+00
0.00000000e+00
0.00000000e+00
0.00000000e+00
0.00000000e+00
0.00000000e+00
0.00000000e+00
0.00000000e+00
0.00000000e+00
0.00000000e+00
0.00000000e+00
0.00000000e+00
0.00000000e+00
0.00000000e+00
SCALARS type int 1
LOOKUP_TABLE default
1
1
1
1
1
1
1
1
1
1
1
1
1
1
1
1
1
1
1
1
1
1
1
1
1
1
1
1
1
1
1
1
1
1
1
1
1
1
1
1
1
1
1
1
1
1
1
1
1
1
1
1
1
1
1
1
1
1
1
1
1
1
1
1
1
1
1
1
1
1
1
1
1
1
1
1
1
1
1
1
1
0
0
0
0
0
0
0
0
0
0
0
0
0
0
0
0
0
0
0
1
1
1
0
0
0
0
0
0
0
0
0
0
0
0
0
0
0
0
0
0
0
1
1
1
0
0
0
0
0
0
0
0
0
0
0
0
0
0
0
0
0
0
0
1
1
1
0
0
0
0
0
0
0
0
0
0
0
0
0
0
0
0
0
0
0
1
1
1
0
0
0
0
0
0
0
0
0
0
0
0
0
0
0
0
0
0
0
1
1
1
0
0
0
0
0
0
0
0
0
0
0
0
0
0
0
0
0
0
1
1
1
0
0
0
0
0
0
0
0
0
0
0
0
0
0
0
0
0
1
1
1
0
0
0
0
0
0
0
0
0
0
0
0
0
0
0
0
0
0
1
1
1
0
0
0
0
0
0
0
0
0
0
0
0
0
0
0
0
1
1
1
1
1
1
1
1
1
1
1
1
1
1
1
1
1
1
1
1
1
1
1
1
1
1
1
1
1
1
1
1
1
1
1
1
1
1
1
1
1
1
1
1
1
1
1
1
1
1
1
1
1
1
1
1
1
1
1
1
1
1
1
1
1
1
1
1
1
1
1
1
1
1
1
1
1
1
1
1
1
1
1
1
1
1
1
1
1
1
1
1
1
1
1
1
1
1
1
1
1
1
1
1
1
1
1
1
1
1
1
1
1
1
1
1
1
1
1
1
1
1
1
1
1
1
1
1
1
1
1
1
1
1
1
1
1
1
1
1
1
1
1
1
1
1
1
1
1
1
1
1
1
1
1
1
1
1
1
1
1
1
1
1
1
1
1
1
VECTORS velocity double
0.00000000e+00 0.00000000e+00 0.0
0.00000000e+00 0.00000000e+00 0.0
0.00000000e+00 0.00000000e+00 0.0
0.00000000e+00 0.00000000e+00 0.0
0.00000000e+00 0.00000000e+00 0.0
0.00000000e+00 0.00000000e+00 0.0
0.00000000e+00 0.00000000e+00 0.0
0.00000000e+00 0.00000000e+00 0.0
0.00000000e+00 0.00000000e+00 0.0
0.00000000e+00 0.00000000e+00 0.0
0.00000000e+00 0.00000000e+00 0.0
0.00000000e+00 0.00000000e+00 0.0
0.00000000e+00 0.00000000e+00 0.0
0.00000000e+00 0.00000000e+00 0.0
0.00000000e+00 0.00000000e+00 0.0
0.00000000e+00 0.00000000e+00 0.0
0.00000000e+00 0.00000000e+00 0.0
0.00000000e+00 0.00000000e+00 0.0
0.00000000e+00 0.00000000e+00 0.0
0.00000000e+00 0.00000000e+00 0.0
0.00000000e+00 0.00000000e+00 0.0
0.00000000e+00 0.00000000e+00 0.0
0.00000000e+00 0.00000000e+00 0.0
0.00000000e+00 0.00000000e+00 0.0
0.00000000e+00 0.00000000e+00 0.0
0.00000000e+00 0.00000000e+00 0.0
0.00000000e+00 0.00000000e+00 0.0
0.00000000e+00 0.00000000e+00 0.0
0.00000000e+00 0.00000000e+00 0.0
0.00000000e+00 0.00000000e+00 0.0
0.00000000e+00 0.00000000e+00 0.0
0.00000000e+00 0.00000000e+00 0.0
0.00000000e+00 0.00000000e+00 0.0
0.00000000e+00 0.00000000e+00 0.0
0.00000000e+00 0.00000000e+00 0.0
0.00000000e+00 0.00000000e+00 0.0
0.00000000e+00 0.00000000e+00 0.0
0.00000000e+00 0.00000000e+00 0.0
0.00000000e+00 0.00000000e+00 0.0
0.00000000e+00 0.00000000e+00 0.0
0.00000000e+00 0.00000000e+00 0.0
0.00000000e+00 0.00000000e+00 0.0
0.00000000e+00 0.00000000e+00 0.0
0.00000000e+00 0.00000000e+00 0.0
0.00000000e+00 0.00000000e+00 0.0
0.00000000e+00 0.00000000e+00 0.0
0.00000000e+00 0.00000000e+00 0.0
0.00000000e+00 0.00000000e+00 0.0
0.00000000e+00 0.00000000e+00 0.0
0.00000000e+00 0.00000000e+00 0.0
0.00000000e+00 0.00000000e+00 0.0
0.00000000e+00 0.00000000e+00 0.0
0.00000000e+00 0.00000000e+00 0.0
0.00000000e+00 0.00000000e+00 0.0
0.00000000e+00 0.00000000e+00 0.0
0.00000000e+00 0.00000000e+00 0.0
0.00000000e+00 0.00000000e+00 0.0
0.00000000e+00 0.00000000e+00 0.0
0.00000000e+00 0.00000000e+00 0.0
0.00000000e+00 0.00000000e+00 0.0
0.00000000e+00 0.00000000e+00 0.0
0.00000000e+00 0.00000000e+00 0.0
0.00000000e+00 0.00000000e+00 0.0
0.00000000e+00 0.00000000e+00 0.0
0.00000000e+00 0.00000000e+00 0.0
0.00000000e+00 0.00000000e+00 0.0
0.00000000e+00 0.00000000e+00 0.0
0.00000000e+00 0.00000000e+00 0.0
0.00000000e+00 0.00000000e+00 0.0
0.00000000e+00 0.00000000e+00 0.0
0.00000000e+00 0.00000000e+00 0.0
0.00000000e+00 0.00000000e+00 0.0
0.00000000e+00 0.00000000e+00 0.0
0.00000000e+00 0.00000000e+00 0.0
0.00000000e+00 0.00000000e+00 0.0
0.00000000e+00 0.00000000e+00 0.0
0.00000000e+00 0.00000000e+00 0.0
0.00000000e+00 0.00000000e+00 0.0
0.00000000e+00 0.00000000e+00 0.0
0.00000000e+00 0.00000000e+00 0.0
0.00000000e+00 0.00000000e+00 0.0
-9.32813224e-01 1.62877633e+00 0.0
4.23618235e-01 -1.61943429e-01 0.0
-2.68704963e-02 7.40431268e-01 0.0
1.11601830e-01 -4.35047756e-02 0.0
-9.88760356e-03 2.62963097e-01 0.0
8.84995900e-01 1.29011904e-01 0.0
-1.20055134e+00 1.25589647e+00 0.0
1.72340556e+00 3.40850046e-01 0.0
2.42379059e-01 -5.67330087e-02 0.0
-1.47730205e+00 1.74162407e+00 0.0
-8.91747842e-01 3.07119224e-01 0.0
-3.07815892e-01 -3.20627584e-01 0.0
-5.83639535e-04 6.32459448e-01 0.0
4.06572050e-01 -3.37060977e-02 0.0
5.58837289e-01 5.15348664e-01 0.0
8.84550512e-02 -3.85144670e-01 0.0
-2.37572126e-01 1.42614351e+00 0.0
-1.04182453e+00 2.20658924e-01 0.0
1.87516500e-01 2.28794564e-01 0.0
0.00000000e+00 0.00000000e+00 0.0
0.00000000e+00 0.00000000e+00 0.0
0.00000000e+00 0.00000000e+00 0.0
-1.21317334e+00 1.14245844e+00 0.0
-5.70056706e-01 4.78695165e-01 0.0
-4.62485918e-01 -1.75455643e+00 0.0
-7.61227710e-01 1.72709662e+00 0.0
-1.50085624e-01 1.53247917e-01 0.0
-6.72761652e-01 -1.06261160e+00 0.0
4.22468259e-01 2.28898291e-01 0.0
5.27622973e-02 -2.54158911e-01 0.0
-4.23291444e-01 3.24025472e-01 0.0
2.11588290e-02 -1.34677216e-01 0.0
6.33660897e-01 8.58539715e-02 0.0