# vtk DataFile Version 3.0
MPS Simulation Step 3100
ASCII
DATASET UNSTRUCTURED_GRID
POINTS 437 double
-5.00000000e-02 -5.00000000e-02 0.0
-5.00000000e-02 -2.50000000e-02 0.0
-5.00000000e-02 0.00000000e+00 0.0
-5.00000000e-02 2.50000000e-02 0.0
-5.00000000e-02 5.00000000e-02 0.0
-5.00000000e-02 7.50000000e-02 0.0
-5.00000000e-02 1.00000000e-01 0.0
-5.00000000e-02 1.25000000e-01 0.0
-5.00000000e-02 1.50000000e-01 0.0
-5.00000000e-02 1.75000000e-01 0.0
-5.00000000e-02 2.00000000e-01 0.0
-5.00000000e-02 2.25000000e-01 0.0
-5.00000000e-02 2.50000000e-01 0.0
-5.00000000e-02 2.75000000e-01 0.0
-5.00000000e-02 3.00000000e-01 0.0
-5.00000000e-02 3.25000000e-01 0.0
-5.00000000e-02 3.50000000e-01 0.0
-5.00000000e-02 3.75000000e-01 0.0
-5.00000000e-02 4.00000000e-01 0.0
-5.00000000e-02 4.25000000e-01 0.0
-5.00000000e-02 4.50000000e-01 0.0
-5.00000000e-02 4.75000000e-01 0.0
-5.00000000e-02 5.00000000e-01 0.0
-5.00000000e-02 5.25000000e-01 0.0
-5.00000000e-02 5.50000000e-01 0.0
-5.00000000e-02 5.75000000e-01 0.0
-2.50000000e-02 -5.00000000e-02 0.0
-2.50000000e-02 -2.50000000e-02 0.0
-2.50000000e-02 0.00000000e+00 0.0
-2.50000000e-02 2.50000000e-02 0.0
-2.50000000e-02 5.00000000e-02 0.0
-2.50000000e-02 7.50000000e-02 0.0
-2.50000000e-02 1.00000000e-01 0.0
-2.50000000e-02 1.25000000e-01 0.0
-2.50000000e-02 1.50000000e-01 0.0
-2.50000000e-02 1.75000000e-01 0.0
-2.50000000e-02 2.00000000e-01 0.0
-2.50000000e-02 2.25000000e-01 0.0
-2.50000000e-02 2.50000000e-01 0.0
-2.50000000e-02 2.75000000e-01 0.0
-2.50000000e-02 3.00000000e-01 0.0
-2.50000000e-02 3.25000000e-01 0.0
-2.50000000e-02 3.50000000e-01 0.0
-2.50000000e-02 3.75000000e-01 0.0
-2.50000000e-02 4.00000000e-01 0.0
-2.50000000e-02 4.25000000e-01 0.0
-2.50000000e-02 4.50000000e-01 0.0
-2.50000000e-02 4.75000000e-01 0.0
-2.50000000e-02 5.00000000e-01 0.0
-2.50000000e-02 5.25000000e-01 0.0
-2.50000000e-02 5.50000000e-01 0.0
-2.50000000e-02 5.75000000e-01 0.0
0.00000000e+00 -5.00000000e-02 0.0
0.00000000e+00 -2.50000000e-02 0.0
0.00000000e+00 0.00000000e+00 0.0
0.00000000e+00 2.50000000e-02 0.0
0.00000000e+00 5.00000000e-02 0.0
0.00000000e+00 7.50000000e-02 0.0
0.00000000e+00 1.00000000e-01 0.0
0.00000000e+00 1.25000000e-01 0.0
0.00000000e+00 1.50000000e-01 0.0
0.00000000e+00 1.75000000e-01 0.0
0.00000000e+00 2.00000000e-01 0.0
0.00000000e+00 2.25000000e-01 0.0
0.00000000e+00 2.50000000e-01 0.0
0.00000000e+00 2.75000000e-01 0.0
0.00000000e+00 3.00000000e-01 0.0
0.00000000e+00 3.25000000e-01 0.0
0.00000000e+00 3.50000000e-01 0.0
0.00000000e+00 3.75000000e-01 0.0
0.00000000e+00 4.00000000e-01 0.0
0.00000000e+00 4.25000000e-01 0.0
0.00000000e+00 4.50000000e-01 0.0
0.00000000e+00 4.75000000e-01 0.0
0.00000000e+00 5.00000000e-01 0.0
0.00000000e+00 5.25000000e-01 0.0
0.00000000e+00 5.50000000e-01 0.0
0.00000000e+00 5.75000000e-01 0.0
2.50000000e-02 -5.00000000e-02 0.0
2.50000000e-02 -2.50000000e-02 0.0
2.50000000e-02 0.00000000e+00 0.0
2.25654874e-01 1.73260936e-01 0.0
9.72286794e-02 1.14612538e-01 0.0
6.64735502e-02 1.92700593e-01 0.0
1.83424639e-01 5.30796728e-02 0.0
5.52177000e-02 3.58625004e-02 0.0
2.79987158e-01 2.24685233e-02 0.0
8.44185388e-02 8.08307127e-02 0.0
2.39609180e-01 1.39484759e-01 0.0
2.06165039e-01 1.20144770e-01 0.0
1.77774271e-01 1.99834256e-01 0.0
1.30661467e-01 1.00223814e-01 0.0
1.03393636e-01 7.50240075e-02 0.0
1.62070976e-01 1.45670649e-01 0.0
3.80479479e-02 3.83662851e-02 0.0
9.56595697e-02 1.49265518e-01 0.0
2.21521954e-01 1.57058891e-02 0.0
4.40150190e-02 1.07564877e-01 0.0
1.89229372e-02 1.59843782e-02 0.0
6.13094919e-02 7.85085079e-02 0.0
5.00000000e-02 -5.00000000e-02 0.0
5.00000000e-02 -2.50000000e-02 0.0
5.00000000e-02 0.00000000e+00 0.0
6.59039576e-02 5.46699806e-02 0.0
1.08199073e-01 4.98410207e-02 0.0
3.10254602e-01 7.23061572e-02 0.0
2.47209669e-01 5.50622161e-02 0.0
2.68165898e-01 1.44863642e-01 0.0
1.19121634e-01 1.59111549e-01 0.0
2.98586524e-01 2.21404813e-02 0.0
1.46034764e-01 9.37596100e-02 0.0
6.87987385e-02 1.23946545e-01 0.0
2.48809957e-02 1.07580941e-01 0.0
8.64462368e-02 2.92003483e-01 0.0
1.23662923e-01 8.70901185e-02 0.0
2.23706284e-01 1.32723268e-01 0.0
4.00177487e-02 2.01605248e-01 0.0
8.01830473e-02 1.64742834e-01 0.0
9.47011130e-02 4.38227298e-02 0.0
8.67576339e-02 1.35705157e-02 0.0
3.69355899e-02 3.58699840e-01 0.0
1.65593701e-02 3.78748521e-01 0.0
7.50000000e-02 -5.00000000e-02 0.0
7.50000000e-02 -2.50000000e-02 0.0
7.50000000e-02 0.00000000e+00 0.0
4.18050641e-02 5.94090757e-02 0.0
5.40342342e-01 1.69551372e-01 0.0
3.11756107e-02 7.81582265e-02 0.0
1.05547563e-01 2.30058636e-01 0.0
6.77335627e-01 6.78791481e-02 0.0
4.41382996e-01 1.37140128e-01 0.0
9.42539961e-01 1.49270340e-01 0.0
2.65433484e-01 8.61712637e-02 0.0
1.98785755e-01 4.47980180e-02 0.0
1.53255121e-01 1.58589029e-01 0.0
4.33040861e-01 3.00861837e-02 0.0
2.23895602e-01 8.64698778e-02 0.0
9.91547446e-02 1.98541476e-01 0.0
3.08306446e-01 1.21596721e-01 0.0
3.31492820e-01 1.27159181e-01 0.0
2.73952899e-02 1.77684735e-01 0.0
3.95637825e-02 1.60892255e-01 0.0
9.27124892e-02 3.25786578e-01 0.0
6.35019240e-02 2.14642163e-01 0.0
1.00000000e-01 -5.00000000e-02 0.0
1.00000000e-01 -2.50000000e-02 0.0
1.00000000e-01 0.00000000e+00 0.0
1.95523356e-01 1.86900039e-02 0.0
3.88961431e-01 6.76258887e-02 0.0
1.67385466e-01 1.11032347e-01 0.0
8.42076009e-01 2.39697075e-02 0.0
6.09976636e-01 1.03025208e-01 0.0
2.98448444e-01 9.17293285e-02 0.0
8.16017156e-01 1.04091084e-01 0.0
7.67866426e-01 1.39829961e-02 0.0
8.60355004e-01 5.51685465e-02 0.0
2.36865897e-01 1.02380147e-01 0.0
4.15787697e-01 1.77911549e-01 0.0
3.22751397e-01 7.06278877e-02 0.0
8.82069972e-01 8.34434308e-02 0.0
2.58151771e-01 3.01537811e-02 0.0
1.83534516e-01 8.18841861e-02 0.0
9.57253808e-01 1.14354770e-01 0.0
3.65660515e-01 5.45752334e-02 0.0
4.87115300e-01 1.64449044e-02 0.0
1.07922821e-01 1.41461136e-01 0.0
1.25000000e-01 -5.00000000e-02 0.0
1.25000000e-01 -2.50000000e-02 0.0
1.25000000e-01 0.00000000e+00 0.0
6.93608294e-01 2.16559813e-01 0.0
2.04315185e-01 1.68299613e-01 0.0
1.46401108e-01 3.40577344e-02 0.0
1.61822474e-01 6.28424081e-02 0.0
8.43167087e-01 5.47377269e-02 0.0
6.43190833e-01 1.59695164e-01 0.0
2.21337753e-01 5.19000163e-02 0.0
8.61325501e-01 1.00587635e-01 0.0
4.40664716e-01 1.50613166e-01 0.0
5.57860506e-01 9.10153471e-02 0.0
2.64187184e-01 1.25330179e-01 0.0
5.95200501e-01 8.12959018e-02 0.0
5.31766933e-01 1.45203847e-02 0.0
7.24501825e-01 9.03957075e-02 0.0
5.54374925e-01 1.21815945e-01 0.0
7.85446682e-01 9.93661084e-02 0.0
3.44583970e-01 6.40203988e-02 0.0
7.16201543e-01 5.04158265e-02 0.0
2.38970292e-01 1.60367525e-01 0.0
1.50000000e-01 -5.00000000e-02 0.0
1.50000000e-01 -2.50000000e-02 0.0
1.50000000e-01 0.00000000e+00 0.0
7.96807572e-01 6.03229906e-02 0.0
9.08696787e-01 2.74923195e-02 0.0
4.18691422e-01 5.59980925e-02 0.0
8.77087981e-01 1.15417314e-01 0.0
9.82583815e-01 1.02653106e-01 0.0
5.00394191e-01 5.73897724e-02 0.0
9.74217211e-01 2.33284271e-02 0.0
8.95203558e-01 8.02446273e-02 0.0
6.11127484e-01 3.87646780e-02 0.0
9.49994365e-01 2.65235719e-01 0.0
4.19387947e-01 1.70442900e-02 0.0
6.69182096e-01 9.94898762e-02 0.0
6.39712216e-01 3.61171734e-02 0.0
5.68979440e-01 1.64022165e-02 0.0
7.00336955e-01 4.71239159e-02 0.0
3.59868310e-01 1.70037565e-02 0.0
4.99873205e-01 4.59858367e-02 0.0
6.05228800e-01 1.79554962e-02 0.0
1.75000000e-01 -5.00000000e-02 0.0
1.75000000e-01 -2.50000000e-02 0.0
1.75000000e-01 0.00000000e+00 0.0
9.56716552e-01 7.53962379e-02 0.0
8.58688243e-01 6.95003301e-02 0.0
7.44587773e-02 1.11732554e-01 0.0
9.33451353e-01 9.18896353e-02 0.0
6.70111400e-01 1.58159935e-02 0.0
7.02119011e-01 3.49062715e-01 0.0
6.59768001e-01 7.37536906e-02 0.0
5.77251328e-01 1.16426868e-01 0.0
5.40781174e-01 9.91055565e-02 0.0
3.79244535e-01 7.79414410e-02 0.0
1.40355429e-01 5.44034358e-02 0.0
5.83411916e-01 3.51400054e-02 0.0
6.72361239e-01 5.41957373e-02 0.0
4.60516965e-01 4.05154397e-02 0.0
7.25371289e-01 1.87521816e-02 0.0
1.64919073e-01 3.10322272e-02 0.0
7.39579537e-01 2.81195799e-02 0.0
2.00000000e-01 -5.00000000e-02 0.0
2.00000000e-01 -2.50000000e-02 0.0
2.00000000e-01 0.00000000e+00 0.0
8.69068739e-01 2.08497063e-02 0.0
2.93293879e-02 1.37584497e-01 0.0
7.55311909e-01 9.24677051e-02 0.0
3.99827521e-01 8.34960834e-02 0.0
2.60615057e-01 5.56961963e-02 0.0
5.16430625e-01 7.05911936e-02 0.0
9.73141728e-01 1.21528116e-01 0.0
1.75865956e-01 9.70680437e-02 0.0
9.38678843e-01 1.16790032e-01 0.0
1.27133979e-01 1.67915064e-02 0.0
1.56143794e-02 2.96723253e-01 0.0
3.41293272e-01 1.57403345e-01 0.0
3.77517096e-01 1.09851596e-01 0.0
1.53686527e-02 2.23040322e-01 0.0
9.42242074e-01 6.67859476e-02 0.0
2.81901222e-01 8.56220126e-02 0.0
6.94976675e-01 1.22338724e-01 0.0
9.63302796e-01 2.12282172e-01 0.0
2.25000000e-01 -5.00000000e-02 0.0
2.25000000e-01 -2.50000000e-02 0.0
2.25000000e-01 0.00000000e+00 0.0
2.09373436e-01 8.35219637e-02 0.0
7.87447373e-01 1.15163971e-01 0.0
5.01021663e-01 1.57266992e-01 0.0
4.30515252e-01 5.00351249e-02 0.0
6.29299091e-01 5.60637424e-02 0.0
1.17396326e-01 1.99974959e-01 0.0
4.21217910e-01 1.07141281e-01 0.0
5.42432744e-01 4.64811571e-02 0.0
2.96853839e-01 1.58015322e-01 0.0
6.16032631e-01 5.99418860e-02 0.0
4.28583603e-01 1.54627927e-01 0.0
1.78693171e-01 1.72626691e-01 0.0
6.56802013e-01 9.32516470e-02 0.0
8.04847265e-01 1.31430340e-02 0.0
7.40196596e-02 2.42228292e-01 0.0
8.14342967e-01 5.57012550e-02 0.0
2.50000000e-01 -5.00000000e-02 0.0
2.50000000e-01 -2.50000000e-02 0.0
2.50000000e-01 0.00000000e+00 0.0
2.75000000e-01 -5.00000000e-02 0.0
2.75000000e-01 -2.50000000e-02 0.0
2.75000000e-01 0.00000000e+00 0.0
3.00000000e-01 -5.00000000e-02 0.0
3.00000000e-01 -2.50000000e-02 0.0
3.00000000e-01 0.00000000e+00 0.0
3.25000000e-01 -5.00000000e-02 0.0
3.25000000e-01 -2.50000000e-02 0.0
3.25000000e-01 0.00000000e+00 0.0
3.50000000e-01 -5.00000000e-02 0.0
3.50000000e-01 -2.50000000e-02 0.0
3.50000000e-01 0.00000000e+00 0.0
3.75000000e-01 -5.00000000e-02 0.0
3.75000000e-01 -2.50000000e-02 0.0
3.75000000e-01 0.00000000e+00 0.0
4.00000000e-01 -5.00000000e-02 0.0
4.00000000e-01 -2.50000000e-02 0.0
4.00000000e-01 0.00000000e+00 0.0
4.25000000e-01 -5.00000000e-02 0.0
4.25000000e-01 -2.50000000e-02 0.0
4.25000000e-01 0.00000000e+00 0.0
4.50000000e-01 -5.00000000e-02 0.0
4.50000000e-01 -2.50000000e-02 0.0
4.50000000e-01 0.00000000e+00 0.0
4.75000000e-01 -5.00000000e-02 0.0
4.75000000e-01 -2.50000000e-02 0.0
4.75000000e-01 0.00000000e+00 0.0
5.00000000e-01 -5.00000000e-02 0.0
5.00000000e-01 -2.50000000e-02 0.0
5.00000000e-01 0.00000000e+00 0.0
5.25000000e-01 -5.00000000e-02 0.0
5.25000000e-01 -2.50000000e-02 0.0
5.25000000e-01 0.00000000e+00 0.0
5.50000000e-01 -5.00000000e-02 0.0
5.50000000e-01 -2.50000000e-02 0.0
5.50000000e-01 0.00000000e+00 0.0
5.75000000e-01 -5.00000000e-02 0.0
5.75000000e-01 -2.50000000e-02 0.0
5.75000000e-01 0.00000000e+00 0.0
6.00000000e-01 -5.00000000e-02 0.0
6.00000000e-01 -2.50000000e-02 0.0
6.00000000e-01 0.00000000e+00 0.0
6.25000000e-01 -5.00000000e-02 0.0
6.25000000e-01 -2.50000000e-02 0.0
6.25000000e-01 0.00000000e+00 0.0
6.50000000e-01 -5.00000000e-02 0.0
6.50000000e-01 -2.50000000e-02 0.0
6.50000000e-01 0.00000000e+00 0.0
6.75000000e-01 -5.00000000e-02 0.0
6.75000000e-01 -2.50000000e-02 0.0
6.75000000e-01 0.00000000e+00 0.0
7.00000000e-01 -5.00000000e-02 0.0
7.00000000e-01 -2.50000000e-02 0.0
7.00000000e-01 0.00000000e+00 0.0
7.25000000e-01 -5.00000000e-02 0.0
7.25000000e-01 -2.50000000e-02 0.0
7.25000000e-01 0.00000000e+00 0.0
7.50000000e-01 -5.00000000e-02 0.0
7.50000000e-01 -2.50000000e-02 0.0
7.50000000e-01 0.00000000e+00 0.0
7.75000000e-01 -5.00000000e-02 0.0
7.75000000e-01 -2.50000000e-02 0.0
7.75000000e-01 0.00000000e+00 0.0
8.00000000e-01 -5.00000000e-02 0.0
8.00000000e-01 -2.50000000e-02 0.0
8.00000000e-01 0.00000000e+00 0.0
8.25000000e-01 -5.00000000e-02 0.0
8.25000000e-01 -2.50000000e-02 0.0
8.25000000e-01 0.00000000e+00 0.0
8.50000000e-01 -5.00000000e-02 0.0
8.50000000e-01 -2.50000000e-02 0.0
8.50000000e-01 0.00000000e+00 0.0
8.75000000e-01 -5.00000000e-02 0.0
8.75000000e-01 -2.50000000e-02 0.0
8.75000000e-01 0.00000000e+00 0.0
9.00000000e-01 -5.00000000e-02 0.0
9.00000000e-01 -2.50000000e-02 0.0
9.00000000e-01 0.00000000e+00 0.0
9.25000000e-01 -5.00000000e-02 0.0
9.25000000e-01 -2.50000000e-02 0.0
9.25000000e-01 0.00000000e+00 0.0
9.50000000e-01 -5.00000000e-02 0.0
9.50000000e-01 -2.50000000e-02 0.0
9.50000000e-01 0.00000000e+00 0.0
9.75000000e-01 -5.00000000e-02 0.0
9.75000000e-01 -2.50000000e-02 0.0
9.75000000e-01 0.00000000e+00 0.0
1.00000000e+00 -5.00000000e-02 0.0
1.00000000e+00 -2.50000000e-02 0.0
1.00000000e+00 0.00000000e+00 0.0
1.00000000e+00 2.50000000e-02 0.0
1.00000000e+00 5.00000000e-02 0.0
1.00000000e+00 7.50000000e-02 0.0
1.00000000e+00 1.00000000e-01 0.0
1.00000000e+00 1.25000000e-01 0.0
1.00000000e+00 1.50000000e-01 0.0
1.00000000e+00 1.75000000e-01 0.0
1.00000000e+00 2.00000000e-01 0.0
1.00000000e+00 2.25000000e-01 0.0
1.00000000e+00 2.50000000e-01 0.0
1.00000000e+00 2.75000000e-01 0.0
1.00000000e+00 3.00000000e-01 0.0
1.00000000e+00 3.25000000e-01 0.0
1.00000000e+00 3.50000000e-01 0.0
1.00000000e+00 3.75000000e-01 0.0
1.00000000e+00 4.00000000e-01 0.0
1.00000000e+00 4.25000000e-01 0.0
1.00000000e+00 4.50000000e-01 0.0
1.00000000e+00 4.75000000e-01 0.0
1.00000000e+00 5.00000000e-01 0.0
1.00000000e+00 5.25000000e-01 0.0
1.00000000e+00 5.50000000e-01 0.0
1.00000000e+00 5.75000000e-01 0.0
1.02500000e+00 -5.00000000e-02 0.0
1.02500000e+00 -2.50000000e-02 0.0
1.02500000e+00 0.00000000e+00 0.0
1.02500000e+00 2.50000000e-02 0.0
1.02500000e+00 5.00000000e-02 0.0
1.02500000e+00 7.50000000e-02 0.0
1.02500000e+00 1.00000000e-01 0.0
1.02500000e+00 1.25000000e-01 0.0
1.02500000e+00 1.50000000e-01 0.0
1.02500000e+00 1.75000000e-01 0.0
1.02500000e+00 2.00000000e-01 0.0
1.02500000e+00 2.25000000e-01 0.0
1.02500000e+00 2.50000000e-01 0.0
1.02500000e+00 2.75000000e-01 0.0
1.02500000e+00 3.00000000e-01 0.0
1.02500000e+00 3.25000000e-01 0.0
1.02500000e+00 3.50000000e-01 0.0
1.02500000e+00 3.75000000e-01 0.0
1.02500000e+00 4.00000000e-01 0.0
1.02500000e+00 4.25000000e-01 0.0
1.02500000e+00 4.50000000e-01 0.0
1.02500000e+00 4.75000000e-01 0.0
1.02500000e+00 5.00000000e-01 0.0
1.02500000e+00 5.25000000e-01 0.0
1.02500000e+00 5.50000000e-01 0.0
1.02500000e+00 5.75000000e-01 0.0
1.05000000e+00 -5.00000000e-02 0.0
1.05000000e+00 -2.50000000e-02 0.0
1.05000000e+00 0.00000000e+00 0.0
1.05000000e+00 2.50000000e-02 0.0
1.05000000e+00 5.00000000e-02 0.0
1.05000000e+00 7.50000000e-02 0.0
1.05000000e+00 1.00000000e-01 0.0
1.05000000e+00 1.25000000e-01 0.0
1.05000000e+00 1.50000000e-01 0.0
1.05000000e+00 1.75000000e-01 0.0
1.05000000e+00 2.00000000e-01 0.0
1.05000000e+00 2.25000000e-01 0.0
1.05000000e+00 2.50000000e-01 0.0
1.05000000e+00 2.75000000e-01 0.0
1.05000000e+00 3.00000000e-01 0.0
1.05000000e+00 3.25000000e-01 0.0
1.05000000e+00 3.50000000e-01 0.0
1.05000000e+00 3.75000000e-01 0.0
1.05000000e+00 4.00000000e-01 0.0
1.05000000e+00 4.25000000e-01 0.0
1.05000000e+00 4.50000000e-01 0.0
1.05000000e+00 4.75000000e-01 0.0
1.05000000e+00 5.00000000e-01 0.0
1.05000000e+00 5.25000000e-01 0.0
1.05000000e+00 5.50000000e-01 0.0
1.05000000e+00 5.75000000e-01 0.0
CELLS 437 874
1 0
1 1
1 2
1 3
1 4
1 5
1 6
1 7
1 8
1 9
1 10
1 11
1 12
1 13
1 14
1 15
1 16
1 17
1 18
1 19
1 20
1 21
1 22
1 23
1 24
1 25
1 26
1 27
1 28
1 29
1 30
1 31
1 32
1 33
1 34
1 35
1 36
1 37
1 38
1 39
1 40
1 41
1 42
1 43
1 44
1 45
1 46
1 47
1 48
1 49
1 50
1 51
1 52
1 53
1 54
1 55
1 56
1 57
1 58
1 59
1 60
1 61
1 62
1 63
1 64
1 65
1 66
1 67
1 68
1 69
1 70
1 71
1 72
1 73
1 74
1 75
1 76
1 77
1 78
1 79
1 80
1 81
1 82
1 83
1 84
1 85
1 86
1 87
1 88
1 89
1 90
1 91
1 92
1 93
1 94
1 95
1 96
1 97
1 98
1 99
1 100
1 101
1 102
1 103
1 104
1 105
1 106
1 107
1 108
1 109
1 110
1 111
1 112
1 113
1 114
1 115
1 116
1 117
1 118
1 119
1 120
1 121
1 122
1 123
1 124
1 125
1 126
1 127
1 128
1 129
1 130
1 131
1 132
1 133
1 134
1 135
1 136
1 137
1 138
1 139
1 140
1 141
1 142
1 143
1 144
1 145
1 146
1 147
1 148
1 149
1 150
1 151
1 152
1 153
1 154
1 155
1 156
1 157
1 158
1 159
1 160
1 161
1 162
1 163
1 164
1 165
1 166
1 167
1 168
1 169
1 170
1 171
1 172
1 173
1 174
1 175
1 176
1 177
1 178
1 179
1 180
1 181
1 182
1 183
1 184
1 185
1 186
1 187
1 188
1 189
1 190
1 191
1 192
1 193
1 194
1 195
1 196
1 197
1 198
1 199
1 200
1 201
1 202
1 203
1 204
1 205
1 206
1 207
1 208
1 209
1 210
1 211
1 212
1 213
1 214
1 215
1 216
1 217
1 218
1 219
1 220
1 221
1 222
1 223
1 224
1 225
1 226
1 227
1 228
1 229
1 230
1 231
1 232
1 233
1 234
1 235
1 236
1 237
1 238
1 239
1 240
1 241
1 242
1 243
1 244
1 245
1 246
1 247
1 248
1 249
1 250
1 251
1 252
1 253
1 254
1 255
1 256
1 257
1 258
1 259
1 260
1 261
1 262
1 263
1 264
1 265
1 266
1 267
1 268
1 269
1 270
1 271
1 272
1 273
1 274
1 275
1 276
1 277
1 278
1 279
1 280
1 281
1 282
1 283
1 284
1 285
1 286
1 287
1 288
1 289
1 290
1 291
1 292
1 293
1 294
1 295
1 296
1 297
1 298
1 299
1 300
1 301
1 302
1 303
1 304
1 305
1 306
1 307
1 308
1 309
1 310
1 311
1 312
1 313
1 314
1 315
1 316
1 317
1 318
1 319
1 320
1 321
1 322
1 323
1 324
1 325
1 326
1 327
1 328
1 329
1 330
1 331
1 332
1 333
1 334
1 335
1 336
1 337
1 338
1 339
1 340
1 341
1 342
1 343
1 344
1 345
1 346
1 347
1 348
1 349
1 350
1 351
1 352
1 353
1 354
1 355
1 356
1 357
1 358
1 359
1 360
1 361
1 362
1 363
1 364
1 365
1 366
1 367
1 368
1 369
1 370
1 371
1 372
1 373
1 374
1 375
1 376
1 377
1 378
1 379
1 380
1 381
1 382
1 383
1 384
1 385
1 386
1 387
1 388
1 389
1 390
1 391
1 392
1 393
1 394
1 395
1 396
1 397
1 398
1 399
1 400
1 401
1 402
1 403
1 404
1 405
1 406
1 407
1 408
1 409
1 410
1 411
1 412
1 413
1 414
1 415
1 416
1 417
1 418
1 419
1 420
1 421
1 422
1 423
1 424
1 425
1 426
1 427
1 428
1 429
1 430
1 431
1 432
1 433
1 434
1 435
1 436
CELL_TYPES 437
1
1
1
1
1
1
1
1
1
1
1
1
1
1
1
1
1
1
1
1
1
1
1
1
1
1
1
1
1
1
1
1
1
1
1
1
1
1
1
1
1
1
1
1
1
1
1
1
1
1
1
1
1
1
1
1
1
1
1
1
1
1
1
1
1
1
1
1
1
1
1
1
1
1
1
1
1
1
1
1
1
1
1
1
1
1
1
1
1
1
1
1
1
1
1
1
1
1
1
1
1
1
1
1
1
1
1
1
1
1
1
1
1
1
1
1
1
1
1
1
1
1
1
1
1
1
1
1
1
1
1
1
1
1
1
1
1
1
1
1
1
1
1
1
1
1
1
1
1
1
1
1
1
1
1
1
1
1
1
1
1
1
1
1
1
1
1
1
1
1
1
1
1
1
1
1
1
1
1
1
1
1
1
1
1
1
1
1
1
1
1
1
1
1
1
1
1
1
1
1
1
1
1
1
1
1
1
1
1
1
1
1
1
1
1
1
1
1
1
1
1
1
1
1
1
1
1
1
1
1
1
1
1
1
1
1
1
1
1
1
1
1
1
1
1
1
1
1
1
1
1
1
1
1
1
1
1
1
1
1
1
1
1
1
1
1
1
1
1
1
1
1
1
1
1
1
1
1
1
1
1
1
1
1
1
1
1
1
1
1
1
1
1
1
1
1
1
1
1
1
1
1
1
1
1
1
1
1
1
1
1
1
1
1
1
1
1
1
1
1
1
1
1
1
1
1
1
1
1
1
1
1
1
1
1
1
1
1
1
1
1
1
1
1
1
1
1
1
1
1
1
1
1
1
1
1
1
1
1
1
1
1
1
1
1
1
1
1
1
1
1
1
1
1
1
1
1
1
1
1
1
1
1
1
1
1
1
1
1
1
1
1
1
1
1
1
1
1
1
1
1
1
1
1
1
1
1
1
1
1
1
1
1
1
1
1
1
1
1
1
1
1
1
1
1
1
1
1
1
1
1
1
1
1
1
1
1
POINT_DATA 437
SCALARS pressure double 1
LOOKUP_TABLE default
0.00000000e+00
0.00000000e+00
0.00000000e+00
0.00000000e+00
0.00000000e+00
0.00000000e+00
0.00000000e+00
0.00000000e+00
0.00000000e+00
0.00000000e+00
0.00000000e+00
0.00000000e+00
0.00000000e+00
0.00000000e+00
0.00000000e+00
0.00000000e+00
0.00000000e+00
0.00000000e+00
0.00000000e+00
0.00000000e+00
0.00000000e+00
0.00000000e+00
0.00000000e+00
0.00000000e+00
0.00000000e+00
0.00000000e+00
0.00000000e+00
0.00000000e+00
0.00000000e+00
0.00000000e+00
0.00000000e+00
0.00000000e+00
0.00000000e+00
0.00000000e+00
0.00000000e+00
0.00000000e+00
0.00000000e+00
0.00000000e+00
0.00000000e+00
0.00000000e+00
0.00000000e+00
0.00000000e+00
0.00000000e+00
0.00000000e+00
0.00000000e+00
0.00000000e+00
0.00000000e+00
0.00000000e+00
0.00000000e+00
0.00000000e+00
0.00000000e+00
0.00000000e+00
0.00000000e+00
0.00000000e+00
0.00000000e+00
0.00000000e+00
0.00000000e+00
0.00000000e+00
0.00000000e+00
0.00000000e+00
0.00000000e+00
0.00000000e+00
0.00000000e+00
0.00000000e+00
0.00000000e+00
0.00000000e+00
0.00000000e+00
0.00000000e+00
0.00000000e+00
0.00000000e+00
0.00000000e+00
0.00000000e+00
0.00000000e+00
0.00000000e+00
0.00000000e+00
0.00000000e+00
0.00000000e+00
0.00000000e+00
0.00000000e+00
0.00000000e+00
0.00000000e+00
0.00000000e+00
0.00000000e+00
0.00000000e+00
3.73074101e+03
1.60421140e+03
0.00000000e+00
0.00000000e+00
7.84149403e+02
0.00000000e+00
0.00000000e+00
0.00000000e+00
0.00000000e+00
0.00000000e+00
4.31239051e+03
0.00000000e+00
5.97900049e+03
0.00000000e+00
2.09859321e+04
0.00000000e+00
0.00000000e+00
0.00000000e+00
0.00000000e+00
1.73179323e+03
0.00000000e+00
0.00000000e+00
0.00000000e+00
0.00000000e+00
0.00000000e+00
0.00000000e+00
0.00000000e+00
0.00000000e+00
0.00000000e+00
0.00000000e+00
0.00000000e+00
0.00000000e+00
0.00000000e+00
0.00000000e+00
0.00000000e+00
2.64154454e+03
0.00000000e+00
0.00000000e+00
0.00000000e+00
0.00000000e+00
0.00000000e+00
2.89697759e+03
0.00000000e+00
0.00000000e+00
0.00000000e+00
6.96740945e+03
0.00000000e+00
0.00000000e+00
0.00000000e+00
0.00000000e+00
0.00000000e+00
0.00000000e+00
0.00000000e+00
0.00000000e+00
0.00000000e+00
0.00000000e+00
0.00000000e+00
0.00000000e+00
0.00000000e+00
0.00000000e+00
0.00000000e+00
0.00000000e+00
0.00000000e+00
7.11266963e+03
0.00000000e+00
0.00000000e+00
0.00000000e+00
0.00000000e+00
0.00000000e+00
0.00000000e+00
0.00000000e+00
1.04742316e+03
0.00000000e+00
0.00000000e+00
0.00000000e+00
0.00000000e+00
0.00000000e+00
2.38933077e+03
0.00000000e+00
0.00000000e+00
0.00000000e+00
0.00000000e+00
0.00000000e+00
0.00000000e+00
0.00000000e+00
0.00000000e+00
0.00000000e+00
0.00000000e+00
0.00000000e+00
0.00000000e+00
0.00000000e+00
0.00000000e+00
0.00000000e+00
0.00000000e+00
0.00000000e+00
0.00000000e+00
0.00000000e+00
0.00000000e+00
0.00000000e+00
0.00000000e+00
0.00000000e+00
0.00000000e+00
0.00000000e+00
0.00000000e+00
0.00000000e+00
0.00000000e+00
0.00000000e+00
0.00000000e+00
0.00000000e+00
0.00000000e+00
0.00000000e+00
6.44423280e+03
0.00000000e+00
0.00000000e+00
0.00000000e+00
1.85261262e+03
0.00000000e+00
2.74387780e+03
0.00000000e+00
0.00000000e+00
3.28080449e+03
0.00000000e+00
0.00000000e+00
0.00000000e+00
1.59845700e+04
0.00000000e+00
0.00000000e+00
0.00000000e+00
0.00000000e+00
0.00000000e+00
6.35776768e+02
0.00000000e+00
0.00000000e+00
0.00000000e+00
4.76378035e+03
0.00000000e+00
0.00000000e+00
0.00000000e+00
0.00000000e+00
0.00000000e+00
0.00000000e+00
0.00000000e+00
5.27286268e+03
0.00000000e+00
0.00000000e+00
0.00000000e+00
0.00000000e+00
0.00000000e+00
0.00000000e+00
0.00000000e+00
0.00000000e+00
0.00000000e+00
0.00000000e+00
0.00000000e+00
0.00000000e+00
5.55679600e+03
0.00000000e+00
1.47747651e+03
0.00000000e+00
0.00000000e+00
0.00000000e+00
0.00000000e+00
0.00000000e+00
0.00000000e+00
0.00000000e+00
0.00000000e+00
0.00000000e+00
0.00000000e+00
0.00000000e+00
0.00000000e+00
0.00000000e+00
0.00000000e+00
0.00000000e+00
1.99223999e+03
0.00000000e+00
0.00000000e+00
0.00000000e+00
0.00000000e+00
0.00000000e+00
0.00000000e+00
0.00000000e+00
0.00000000e+00
0.00000000e+00
0.00000000e+00
0.00000000e+00
0.00000000e+00
0.00000000e+00
0.00000000e+00
0.00000000e+00
0.00000000e+00
0.00000000e+00
0.00000000e+00
0.00000000e+00
0.00000000e+00
0.00000000e+00
0.00000000e+00
0.00000000e+00
0.00000000e+00
0.00000000e+00
0.00000000e+00
0.00000000e+00
0.00000000e+00
0.00000000e+00
0.00000000e+00
0.00000000e+00
0.00000000e+00
0.00000000e+00
0.00000000e+00
0.00000000e+00
0.00000000e+00
0.00000000e+00
0.00000000e+00
0.00000000e+00
0.00000000e+00
0.00000000e+00
0.00000000e+00
0.00000000e+00
0.00000000e+00
0.00000000e+00
0.00000000e+00
0.00000000e+00
0.00000000e+00
0.00000000e+00
0.00000000e+00
0.00000000e+00
0.00000000e+00
0.00000000e+00
0.00000000e+00
0.00000000e+00
0.00000000e+00
0.00000000e+00
0.00000000e+00
0.00000000e+00
0.00000000e+00
0.00000000e+00
0.00000000e+00
0.00000000e+00
0.00000000e+00
0.00000000e+00
0.00000000e+00
0.00000000e+00
0.00000000e+00
0.00000000e+00
0.00000000e+00
0.00000000e+00
0.00000000e+00
0.00000000e+00
0.00000000e+00
0.00000000e+00
0.00000000e+00
0.00000000e+00
0.00000000e+00
0.00000000e+00
0.00000000e+00
0.00000000e+00
0.00000000e+00
0.00000000e+00
0.00000000e+00
0.00000000e+00
0.00000000e+00
0.00000000e+00
0.00000000e+00
0.00000000e+00
0.00000000e+00
0.00000000e+00
0.00000000e+00
0.00000000e+00
0.00000000e+00
0.00000000e+00
0.00000000e+00
0.00000000e+00
0.00000000e+00
0.00000000e+00
0.00000000e+00
0.00000000e+00
0.00000000e+00
0.00000000e+00
0.00000000e+00
0.00000000e+00
0.00000000e+00
0.00000000e+00
0.00000000e+00
0.00000000e+00
0.00000000e+00
0.00000000e+00
0.00000000e+00
0.00000000e+00
0.00000000e+00
0.00000000e+00
0.00000000e+00
0.00000000e+00
0.00000000e+00
0.00000000e+00
0.00000000e+00
0.00000000e+00
0.00000000e+00
0.00000000e+00
0.00000000e+00
0.00000000e+00
0.00000000e+00
0.00000000e+00
0.00000000e+00
0.00000000e+00
0.00000000e+00
0.00000000e+00
0.00000000e+00
0.00000000e+00
0.00000000e+00
0.00000000e+00
0.00000000e+00
0.00000000e+00
0.00000000e+00
0.00000000e+00
0.00000000e+00
0.00000000e+00
0.00000000e+00
0.00000000e+00
0.00000000e+00
0.00000000e+00
0.00000000e+00
0.00000000e+00
0.00000000e+00
0.00000000e+00
0.00000000e+00
0.00000000e+00
0.00000000e+00
0.00000000e+00
0.00000000e+00
0.00000000e+00
0.00000000e+00
0.00000000e+00
0.00000000e+00
0.00000000e+00
0.00000000e+00
0.00000000e+00
0.00000000e+00
0.00000000e+00
0.00000000e+00
0.00000000e+00
0.00000000e+00
0.00000000e+00
0.00000000e+00
0.00000000e+00
0.00000000e+00
0.00000000e+00
0.00000000e+00
0.00000000e+00
0.00000000e+00
0.00000000e+00
0.00000000e+00
0.00000000e+00
0.00000000e+00
0.00000000e+00
SCALARS type int 1
LOOKUP_TABLE default
1
1
1
1
1
1
1
1
1
1
1
1
1
1
1
1
1
1
1
1
1
1
1
1
1
1
1
1
1
1
1
1
1
1
1
1
1
1
1
1
1
1
1
1
1
1
1
1
1
1
1
1
1
1
1
1
1
1
1
1
1
1
1
1
1
1
1
1
1
1
1
1
1
1
1
1
1
1
1
1
1
0
0
0
0
0
0
0
0
0
0
0
0
0
0
0
0
0
0
0
1
1
1
0
0
0
0
0
0
0
0
0
0
0
0
0
0
0
0
0
0
0
1
1
1
0
0
0
0
0
0
0
0
0
0
0
0
0
0
0
0
0
0
0
1
1
1
0
0
0
0
0
0
0
0
0
0
0
0
0
0
0
0
0
0
0
1
1
1
0
0
0
0
0
0
0
0
0
0
0
0
0
0
0
0
0
0
0
1
1
1
0
0
0
0
0
0
0
0
0
0
0
0
0
0
0
0
0
0
1
1
1
0
0
0
0
0
0
0
0
0
0
0
0
0
0
0
0
0
1
1
1
0
0
0
0
0
0
0
0
0
0
0
0
0
0
0
0
0
0
1
1
1
0
0
0
0
0
0
0
0
0
0
0
0
0
0
0
0
1
1
1
1
1
1
1
1
1
1
1
1
1
1
1
1
1
1
1
1
1
1
1
1
1
1
1
1
1
1
1
1
1
1
1
1
1
1
1
1
1
1
1
1
1
1
1
1
1
1
1
1
1
1
1
1
1
1
1
1
1
1
1
1
1
1
1
1
1
1
1
1
1
1
1
1
1
1
1
1
1
1
1
1
1
1
1
1
1
1
1
1
1
1
1
1
1
1
1
1
1
1
1
1
1
1
1
1
1
1
1
1
1
1
1
1
1
1
1
1
1
1
1
1
1
1
1
1
1
1
1
1
1
1
1
1
1
1
1
1
1
1
1
1
1
1
1
1
1
1
1
1
1
1
1
1
1
1
1
1
1
1
1
1
1
1
1
1
VECTORS velocity double
0.00000000e+00 0.00000000e+00 0.0
0.00000000e+00 0.00000000e+00 0.0
0.00000000e+00 0.00000000e+00 0.0
0.00000000e+00 0.00000000e+00 0.0
0.00000000e+00 0.00000000e+00 0.0
0.00000000e+00 0.00000000e+00 0.0
0.00000000e+00 0.00000000e+00 0.0
0.00000000e+00 0.00000000e+00 0.0
0.00000000e+00 0.00000000e+00 0.0
0.00000000e+00 0.00000000e+00 0.0
0.00000000e+00 0.00000000e+00 0.0
0.00000000e+00 0.00000000e+00 0.0
0.00000000e+00 0.00000000e+00 0.0
0.00000000e+00 0.00000000e+00 0.0
0.00000000e+00 0.00000000e+00 0.0
0.00000000e+00 0.00000000e+00 0.0
0.00000000e+00 0.00000000e+00 0.0
0.00000000e+00 0.00000000e+00 0.0
0.00000000e+00 0.00000000e+00 0.0
0.00000000e+00 0.00000000e+00 0.0
0.00000000e+00 0.00000000e+00 0.0
0.00000000e+00 0.00000000e+00 0.0
0.00000000e+00 0.00000000e+00 0.0
0.00000000e+00 0.00000000e+00 0.0
0.00000000e+00 0.00000000e+00 0.0
0.00000000e+00 0.00000000e+00 0.0
0.00000000e+00 0.00000000e+00 0.0
0.00000000e+00 0.00000000e+00 0.0
0.00000000e+00 0.00000000e+00 0.0
0.00000000e+00 0.00000000e+00 0.0
0.00000000e+00 0.00000000e+00 0.0
0.00000000e+00 0.00000000e+00 0.0
0.00000000e+00 0.00000000e+00 0.0
0.00000000e+00 0.00000000e+00 0.0
0.00000000e+00 0.00000000e+00 0.0
0.00000000e+00 0.00000000e+00 0.0
0.00000000e+00 0.00000000e+00 0.0
0.00000000e+00 0.00000000e+00 0.0
0.00000000e+00 0.00000000e+00 0.0
0.00000000e+00 0.00000000e+00 0.0
0.00000000e+00 0.00000000e+00 0.0
0.00000000e+00 0.00000000e+00 0.0
0.00000000e+00 0.00000000e+00 0.0
0.00000000e+00 0.00000000e+00 0.0
0.00000000e+00 0.00000000e+00 0.0
0.00000000e+00 0.00000000e+00 0.0
0.00000000e+00 0.00000000e+00 0.0
0.00000000e+00 0.00000000e+00 0.0
0.00000000e+00 0.00000000e+00 0.0
0.00000000e+00 0.00000000e+00 0.0
0.00000000e+00 0.00000000e+00 0.0
0.00000000e+00 0.00000000e+00 0.0
0.00000000e+00 0.00000000e+00 0.0
0.00000000e+00 0.00000000e+00 0.0
0.00000000e+00 0.00000000e+00 0.0
0.00000000e+00 0.00000000e+00 0.0
0.00000000e+00 0.00000000e+00 0.0
0.00000000e+00 0.00000000e+00 0.0
0.00000000e+00 0.00000000e+00 0.0
0.00000000e+00 0.00000000e+00 0.0
0.00000000e+00 0.00000000e+00 0.0
0.00000000e+00 0.00000000e+00 0.0
0.00000000e+00 0.00000000e+00 0.0
0.00000000e+00 0.00000000e+00 0.0
0.00000000e+00 0.00000000e+00 0.0
0.00000000e+00 0.00000000e+00 0.0
0.00000000e+00 0.00000000e+00 0.0
0.00000000e+00 0.00000000e+00 0.0
0.00000000e+00 0.00000000e+00 0.0
0.00000000e+00 0.00000000e+00 0.0
0.00000000e+00 0.00000000e+00 0.0
0.00000000e+00 0.00000000e+00 0.0
0.00000000e+00 0.00000000e+00 0.0
0.00000000e+00 0.00000000e+00 0.0
0.00000000e+00 0.00000000e+00 0.0
0.00000000e+00 0.00000000e+00 0.0
0.00000000e+00 0.00000000e+00 0.0
0.00000000e+00 0.00000000e+00 0.0
0.00000000e+00 0.00000000e+00 0.0
0.00000000e+00 0.00000000e+00 0.0
0.00000000e+00 0.00000000e+00 0.0
6.02087488e-01 7.97222499e-02 0.0
-1.43846518e-01 -2.48791127e-01 0.0
-1.42799152e-01 -2.06242207e-01 0.0
-2.87583786e-01 -5.84369424e-01 0.0
2.66676354e-02 1.47195801e-01 0.0
-5.81421970e-02 -1.83001875e-01 0.0
-3.62455556e-01 1.45737609e-02 0.0
3.00794695e-01 -1.27458199e+00 0.0
-4.57468467e-01 -3.61915886e-01 0.0
2.27963789e-01 -3.74100107e-01 0.0
4.35032190e-02 3.60430458e-01 0.0
2.17894215e-02 4.56114116e-01 0.0
3.57153969e-02 -5.14423763e-01 0.0
-1.39333929e-01 3.05296435e-01 0.0
-2.52614613e-01 6.64180334e-01 0.0
-3.32741753e-01 -8.47743425e-04 0.0
-6.15634403e-01 -4.56059451e-01 0.0
3.26195219e-01 -3.84965572e-01 0.0
-5.30462666e-01 -7.76118502e-01 0.0
0.00000000e+00 0.00000000e+00 0.0
0.00000000e+00 0.00000000e+00 0.0
0.00000000e+00 0.00000000e+00 0.0
-2.10772106e-01 3.20395127e-01 0.0
-2.00283992e-01 -3.27483708e-01 0.0
-3.00147870e-01 3.32124964e-01 0.0
3.39730317e-01 -3.45945514e-01 0.0
-3.25830029e-01 1.02008694e+00 0.0
1.76604685e-01 9.47465985e-01 0.0
-8.72057900e-01 3.02975972e-01 0.0
1.27138000e-01 6.84866272e-03 0.0
3.26825279e-01 9.63201797e-02 0.0
3.26349914e-01 1.47259385e-01 0.0
1.74164181e-01 4.81608949e-01 0.0