# vtk DataFile Version 3.0
MPS Simulation Step 100
ASCII
DATASET UNSTRUCTURED_GRID
POINTS 444 double
-5.00000000e-02 -5.00000000e-02 0.0
-5.00000000e-02 -2.50000000e-02 0.0
-5.00000000e-02 0.00000000e+00 0.0
-5.00000000e-02 2.50000000e-02 0.0
-5.00000000e-02 5.00000000e-02 0.0
-5.00000000e-02 7.50000000e-02 0.0
-5.00000000e-02 1.00000000e-01 0.0
-5.00000000e-02 1.25000000e-01 0.0
-5.00000000e-02 1.50000000e-01 0.0
-5.00000000e-02 1.75000000e-01 0.0
-5.00000000e-02 2.00000000e-01 0.0
-5.00000000e-02 2.25000000e-01 0.0
-5.00000000e-02 2.50000000e-01 0.0
-5.00000000e-02 2.75000000e-01 0.0
-5.00000000e-02 3.00000000e-01 0.0
-5.00000000e-02 3.25000000e-01 0.0
-5.00000000e-02 3.50000000e-01 0.0
-5.00000000e-02 3.75000000e-01 0.0
-5.00000000e-02 4.00000000e-01 0.0
-5.00000000e-02 4.25000000e-01 0.0
-5.00000000e-02 4.50000000e-01 0.0
-5.00000000e-02 4.75000000e-01 0.0
-5.00000000e-02 5.00000000e-01 0.0
-5.00000000e-02 5.25000000e-01 0.0
-5.00000000e-02 5.50000000e-01 0.0
-5.00000000e-02 5.75000000e-01 0.0
-2.50000000e-02 -5.00000000e-02 0.0
-2.50000000e-02 -2.50000000e-02 0.0
-2.50000000e-02 0.00000000e+00 0.0
-2.50000000e-02 2.50000000e-02 0.0
-2.50000000e-02 5.00000000e-02 0.0
-2.50000000e-02 7.50000000e-02 0.0
-2.50000000e-02 1.00000000e-01 0.0
-2.50000000e-02 1.25000000e-01 0.0
-2.50000000e-02 1.50000000e-01 0.0
-2.50000000e-02 1.75000000e-01 0.0
-2.50000000e-02 2.00000000e-01 0.0
-2.50000000e-02 2.25000000e-01 0.0
-2.50000000e-02 2.50000000e-01 0.0
-2.50000000e-02 2.75000000e-01 0.0
-2.50000000e-02 3.00000000e-01 0.0
-2.50000000e-02 3.25000000e-01 0.0
-2.50000000e-02 3.50000000e-01 0.0
-2.50000000e-02 3.75000000e-01 0.0
-2.50000000e-02 4.00000000e-01 0.0
-2.50000000e-02 4.25000000e-01 0.0
-2.50000000e-02 4.50000000e-01 0.0
-2.50000000e-02 4.75000000e-01 0.0
-2.50000000e-02 5.00000000e-01 0.0
-2.50000000e-02 5.25000000e-01 0.0
-2.50000000e-02 5.50000000e-01 0.0
-2.50000000e-02 5.75000000e-01 0.0
0.00000000e+00 -5.00000000e-02 0.0
0.00000000e+00 -2.50000000e-02 0.0
0.00000000e+00 0.00000000e+00 0.0
0.00000000e+00 2.50000000e-02 0.0
0.00000000e+00 5.00000000e-02 0.0
0.00000000e+00 7.50000000e-02 0.0
0.00000000e+00 1.00000000e-01 0.0
0.00000000e+00 1.25000000e-01 0.0
0.00000000e+00 1.50000000e-01 0.0
0.00000000e+00 1.75000000e-01 0.0
0.00000000e+00 2.00000000e-01 0.0
0.00000000e+00 2.25000000e-01 0.0
0.00000000e+00 2.50000000e-01 0.0
0.00000000e+00 2.75000000e-01 0.0
0.00000000e+00 3.00000000e-01 0.0
0.00000000e+00 3.25000000e-01 0.0
0.00000000e+00 3.50000000e-01 0.0
0.00000000e+00 3.75000000e-01 0.0
0.00000000e+00 4.00000000e-01 0.0
0.00000000e+00 4.25000000e-01 0.0
0.00000000e+00 4.50000000e-01 0.0
0.00000000e+00 4.75000000e-01 0.0
0.00000000e+00 5.00000000e-01 0.0
0.00000000e+00 5.25000000e-01 0.0
0.00000000e+00 5.50000000e-01 0.0
0.00000000e+00 5.75000000e-01 0.0
2.50000000e-02 -5.00000000e-02 0.0
2.50000000e-02 -2.50000000e-02 0.0
2.50000000e-02 0.00000000e+00 0.0
1.25000000e-02 1.26649611e-02 0.0
2.96699609e-02 4.37963699e-02 0.0
1.25570166e-02 6.58532629e-02 0.0
2.56126540e-02 9.44539890e-02 0.0
1.69082668e-02 1.16903903e-01 0.0
2.34723344e-02 1.44742555e-01 0.0
1.99263323e-02 1.66922856e-01 0.0
2.32048107e-02 1.93389302e-01 0.0
2.18537720e-02 2.16400592e-01 0.0
2.34058054e-02 2.41794796e-01 0.0
2.30788028e-02 2.65405518e-01 0.0
2.37712132e-02 2.90614388e-01 0.0
2.37647855e-02 3.14572302e-01 0.0
2.41743449e-02 3.39507558e-01 0.0
2.42208777e-02 3.64167373e-01 0.0
2.44092487e-02 3.88814280e-01 0.0
2.46385243e-02 4.13624163e-01 0.0
2.48421663e-02 4.38713040e-01 0.0
2.49766272e-02 4.62922955e-01 0.0
5.00000000e-02 -5.00000000e-02 0.0
5.00000000e-02 -2.50000000e-02 0.0
5.00000000e-02 0.00000000e+00 0.0
4.22919805e-02 1.97059358e-02 0.0
5.08848953e-02 4.70160152e-02 0.0
5.00284893e-02 6.68196666e-02 0.0
5.12276842e-02 9.41221610e-02 0.0
5.17722165e-02 1.13807517e-01 0.0
5.18916063e-02 1.42873087e-01 0.0
5.18205444e-02 1.63525261e-01 0.0
5.19017032e-02 1.91294674e-01 0.0
5.15778372e-02 2.13637909e-01 0.0
5.16281030e-02 2.40062812e-01 0.0
5.11273865e-02 2.63578209e-01 0.0
5.11932196e-02 2.89167686e-01 0.0
5.06756066e-02 3.13463401e-01 0.0
5.08407488e-02 3.38685642e-01 0.0
5.04541831e-02 3.63199786e-01 0.0
5.04077119e-02 3.88384940e-01 0.0
5.02837520e-02 4.13245058e-01 0.0
5.00821778e-02 4.38250858e-01 0.0
5.00082484e-02 4.62832412e-01 0.0
7.50000000e-02 -5.00000000e-02 0.0
7.50000000e-02 -2.50000000e-02 0.0
7.50000000e-02 0.00000000e+00 0.0
7.28733239e-02 1.27543285e-02 0.0
7.56797495e-02 4.81364066e-02 0.0
7.56327662e-02 6.70106077e-02 0.0
7.38303904e-02 9.42928351e-02 0.0
7.47864064e-02 1.17456962e-01 0.0
7.37219039e-02 1.42498836e-01 0.0
7.41827749e-02 1.66317845e-01 0.0
7.41610950e-02 1.91511890e-01 0.0
7.40756334e-02 2.15513046e-01 0.0
7.45013150e-02 2.40558590e-01 0.0
7.42536391e-02 2.64687812e-01 0.0
7.46055235e-02 2.89876392e-01 0.0
7.46481862e-02 3.14075993e-01 0.0
7.45570978e-02 3.39268937e-01 0.0
7.47361415e-02 3.63713407e-01 0.0
7.48978842e-02 3.88739722e-01 0.0
7.48063358e-02 4.13385520e-01 0.0
7.49784956e-02 4.38556286e-01 0.0
7.50046287e-02 4.62895602e-01 0.0
1.00000000e-01 -5.00000000e-02 0.0
1.00000000e-01 -2.50000000e-02 0.0
1.00000000e-01 0.00000000e+00 0.0
1.06632686e-01 1.54888609e-02 0.0
1.03796303e-01 4.55000000e-02 0.0
1.02418327e-01 6.33599136e-02 0.0
1.04471425e-01 9.48034305e-02 0.0
1.02713675e-01 1.13962737e-01 0.0
1.03804668e-01 1.42573116e-01 0.0
1.02618716e-01 1.63974449e-01 0.0
1.03038933e-01 1.90829802e-01 0.0
1.02165417e-01 2.13700927e-01 0.0
1.02226021e-01 2.39884903e-01 0.0
1.01629823e-01 2.63348845e-01 0.0
1.01464053e-01 2.89376591e-01 0.0
1.01051088e-01 3.13131340e-01 0.0
1.00862404e-01 3.38638639e-01 0.0
1.00614343e-01 3.63370387e-01 0.0
1.00424496e-01 3.88321650e-01 0.0
1.00315654e-01 4.13191335e-01 0.0
1.00129455e-01 4.38352144e-01 0.0
1.00017317e-01 4.62792285e-01 0.0
1.25000000e-01 -5.00000000e-02 0.0
1.25000000e-01 -2.50000000e-02 0.0
1.25000000e-01 0.00000000e+00 0.0
1.37168570e-01 1.29030687e-02 0.0
1.27547408e-01 4.73384898e-02 0.0
1.30036508e-01 6.51128240e-02 0.0
1.26615166e-01 9.35119498e-02 0.0
1.27171406e-01 1.14678175e-01 0.0
1.26051547e-01 1.41828094e-01 0.0
1.26004233e-01 1.64396971e-01 0.0
1.25670952e-01 1.90801942e-01 0.0
1.25583961e-01 2.14054192e-01 0.0
1.25504597e-01 2.40033692e-01 0.0
1.25369508e-01 2.63697775e-01 0.0
1.25403804e-01 2.89441607e-01 0.0
1.25181684e-01 3.13420540e-01 0.0
1.25407698e-01 3.38965298e-01 0.0
1.25262179e-01 3.63326372e-01 0.0
1.25104779e-01 3.88497492e-01 0.0
1.25174487e-01 4.13179702e-01 0.0
1.25074729e-01 4.38309080e-01 0.0
1.25008385e-01 4.62797065e-01 0.0
1.50000000e-01 -5.00000000e-02 0.0
1.50000000e-01 -2.50000000e-02 0.0
1.50000000e-01 0.00000000e+00 0.0
1.68879934e-01 1.38176895e-02 0.0
1.55654384e-01 4.66934779e-02 0.0
1.57545152e-01 6.38786794e-02 0.0
1.55150850e-01 9.40625426e-02 0.0
1.55679765e-01 1.13615475e-01 0.0
1.54320811e-01 1.41974069e-01 0.0
1.54245643e-01 1.63374781e-01 0.0
1.53286613e-01 1.90442874e-01 0.0
1.53091966e-01 2.13165198e-01 0.0
1.52315359e-01 2.39556049e-01 0.0
1.52173144e-01 2.63011565e-01 0.0
1.51495182e-01 2.89013867e-01 0.0
1.51425266e-01 3.12940520e-01 0.0
1.50872409e-01 3.38622349e-01 0.0
1.50752643e-01 3.62899652e-01 0.0
1.50344999e-01 3.88179911e-01 0.0
1.50298279e-01 4.13145272e-01 0.0
1.50180639e-01 4.38096022e-01 0.0
1.50029034e-01 4.62704629e-01 0.0
1.75000000e-01 -5.00000000e-02 0.0
1.75000000e-01 -2.50000000e-02 0.0
1.75000000e-01 0.00000000e+00 0.0
2.00017732e-01 1.42412197e-02 0.0
1.81362529e-01 4.66827909e-02 0.0
1.85406794e-01 6.33777487e-02 0.0
1.78814326e-01 9.30745793e-02 0.0
1.80468772e-01 1.12896278e-01 0.0
1.77294648e-01 1.41062727e-01 0.0
1.78214957e-01 1.62893959e-01 0.0
1.76440023e-01 1.90030193e-01 0.0
1.77059505e-01 2.12909701e-01 0.0
1.75994679e-01 2.39347815e-01 0.0
1.76344590e-01 2.62921605e-01 0.0
1.75751406e-01 2.88819531e-01 0.0
1.75874852e-01 3.12942524e-01 0.0
1.75528158e-01 3.38420117e-01 0.0
1.75530309e-01 3.62918568e-01 0.0
1.75510054e-01 3.88085117e-01 0.0
1.75373491e-01 4.13075304e-01 0.0
1.75112064e-01 4.37982836e-01 0.0
1.75011258e-01 4.62639511e-01 0.0
2.00000000e-01 -5.00000000e-02 0.0
2.00000000e-01 -2.50000000e-02 0.0
2.00000000e-01 0.00000000e+00 0.0
2.33116520e-01 1.47947339e-02 0.0
2.08117714e-01 4.75132466e-02 0.0
2.15684350e-01 6.30087824e-02 0.0
2.05994407e-01 9.30601441e-02 0.0
2.09366103e-01 1.12713668e-01 0.0
2.04292116e-01 1.40806643e-01 0.0
2.06143568e-01 1.62770042e-01 0.0
2.03147587e-01 1.89457061e-01 0.0
2.04039054e-01 2.12810790e-01 0.0
2.02281767e-01 2.38714942e-01 0.0
2.02563201e-01 2.62806144e-01 0.0
2.01587095e-01 2.88367394e-01 0.0
2.01552675e-01 3.12740906e-01 0.0
2.00999365e-01 3.38070715e-01 0.0
2.00846518e-01 3.62860444e-01 0.0
2.00574895e-01 3.87927032e-01 0.0
2.00377622e-01 4.12743124e-01 0.0
2.00072054e-01 4.37700255e-01 0.0
2.00001394e-01 4.62616720e-01 0.0
2.25000000e-01 -5.00000000e-02 0.0
2.25000000e-01 -2.50000000e-02 0.0
2.25000000e-01 0.00000000e+00 0.0
2.63731653e-01 1.49846974e-02 0.0
2.39043254e-01 4.73374249e-02 0.0
2.41298040e-01 6.26197774e-02 0.0
2.30781578e-01 9.00335949e-02 0.0
2.32989373e-01 1.12566308e-01 0.0
2.28081737e-01 1.38551151e-01 0.0
2.29241334e-01 1.62609286e-01 0.0
2.26842743e-01 1.88032098e-01 0.0
2.27407582e-01 2.12634106e-01 0.0
2.26146123e-01 2.37826568e-01 0.0
2.26407178e-01 2.62637976e-01 0.0
2.25695781e-01 2.87751629e-01 0.0
2.25743322e-01 3.12625042e-01 0.0
2.25435792e-01 3.37690446e-01 0.0
2.25335931e-01 3.62656403e-01 0.0
2.25115441e-01 3.87667633e-01 0.0
2.25037114e-01 4.12624911e-01 0.0
2.25004545e-01 4.37619308e-01 0.0
2.25000000e-01 4.62614875e-01 0.0
2.50000000e-01 -5.00000000e-02 0.0
2.50000000e-01 -2.50000000e-02 0.0
2.50000000e-01 0.00000000e+00 0.0
2.75000000e-01 -5.00000000e-02 0.0
2.75000000e-01 -2.50000000e-02 0.0
2.75000000e-01 0.00000000e+00 0.0
3.00000000e-01 -5.00000000e-02 0.0
3.00000000e-01 -2.50000000e-02 0.0
3.00000000e-01 0.00000000e+00 0.0
3.25000000e-01 -5.00000000e-02 0.0
3.25000000e-01 -2.50000000e-02 0.0
3.25000000e-01 0.00000000e+00 0.0
3.50000000e-01 -5.00000000e-02 0.0
3.50000000e-01 -2.50000000e-02 0.0
3.50000000e-01 0.00000000e+00 0.0
3.75000000e-01 -5.00000000e-02 0.0
3.75000000e-01 -2.50000000e-02 0.0
3.75000000e-01 0.00000000e+00 0.0
4.00000000e-01 -5.00000000e-02 0.0
4.00000000e-01 -2.50000000e-02 0.0
4.00000000e-01 0.00000000e+00 0.0
4.25000000e-01 -5.00000000e-02 0.0
4.25000000e-01 -2.50000000e-02 0.0
4.25000000e-01 0.00000000e+00 0.0
4.50000000e-01 -5.00000000e-02 0.0
4.50000000e-01 -2.50000000e-02 0.0
4.50000000e-01 0.00000000e+00 0.0
4.75000000e-01 -5.00000000e-02 0.0
4.75000000e-01 -2.50000000e-02 0.0
4.75000000e-01 0.00000000e+00 0.0
5.00000000e-01 -5.00000000e-02 0.0
5.00000000e-01 -2.50000000e-02 0.0
5.00000000e-01 0.00000000e+00 0.0
5.25000000e-01 -5.00000000e-02 0.0
5.25000000e-01 -2.50000000e-02 0.0
5.25000000e-01 0.00000000e+00 0.0
5.50000000e-01 -5.00000000e-02 0.0
5.50000000e-01 -2.50000000e-02 0.0
5.50000000e-01 0.00000000e+00 0.0
5.75000000e-01 -5.00000000e-02 0.0
5.75000000e-01 -2.50000000e-02 0.0
5.75000000e-01 0.00000000e+00 0.0
6.00000000e-01 -5.00000000e-02 0.0
6.00000000e-01 -2.50000000e-02 0.0
6.00000000e-01 0.00000000e+00 0.0
6.25000000e-01 -5.00000000e-02 0.0
6.25000000e-01 -2.50000000e-02 0.0
6.25000000e-01 0.00000000e+00 0.0
6.50000000e-01 -5.00000000e-02 0.0
6.50000000e-01 -2.50000000e-02 0.0
6.50000000e-01 0.00000000e+00 0.0
6.75000000e-01 -5.00000000e-02 0.0
6.75000000e-01 -2.50000000e-02 0.0
6.75000000e-01 0.00000000e+00 0.0
7.00000000e-01 -5.00000000e-02 0.0
7.00000000e-01 -2.50000000e-02 0.0
7.00000000e-01 0.00000000e+00 0.0
7.25000000e-01 -5.00000000e-02 0.0
7.25000000e-01 -2.50000000e-02 0.0
7.25000000e-01 0.00000000e+00 0.0
7.50000000e-01 -5.00000000e-02 0.0
7.50000000e-01 -2.50000000e-02 0.0
7.50000000e-01 0.00000000e+00 0.0
7.75000000e-01 -5.00000000e-02 0.0
7.75000000e-01 -2.50000000e-02 0.0
7.75000000e-01 0.00000000e+00 0.0
8.00000000e-01 -5.00000000e-02 0.0
8.00000000e-01 -2.50000000e-02 0.0
8.00000000e-01 0.00000000e+00 0.0
8.25000000e-01 -5.00000000e-02 0.0
8.25000000e-01 -2.50000000e-02 0.0
8.25000000e-01 0.00000000e+00 0.0
8.50000000e-01 -5.00000000e-02 0.0
8.50000000e-01 -2.50000000e-02 0.0
8.50000000e-01 0.00000000e+00 0.0
8.75000000e-01 -5.00000000e-02 0.0
8.75000000e-01 -2.50000000e-02 0.0
8.75000000e-01 0.00000000e+00 0.0
9.00000000e-01 -5.00000000e-02 0.0
9.00000000e-01 -2.50000000e-02 0.0
9.00000000e-01 0.00000000e+00 0.0
9.25000000e-01 -5.00000000e-02 0.0
9.25000000e-01 -2.50000000e-02 0.0
9.25000000e-01 0.00000000e+00 0.0
9.50000000e-01 -5.00000000e-02 0.0
9.50000000e-01 -2.50000000e-02 0.0
9.50000000e-01 0.00000000e+00 0.0
9.75000000e-01 -5.00000000e-02 0.0
9.75000000e-01 -2.50000000e-02 0.0
9.75000000e-01 0.00000000e+00 0.0
1.00000000e+00 -5.00000000e-02 0.0
1.00000000e+00 -2.50000000e-02 0.0
1.00000000e+00 0.00000000e+00 0.0
1.00000000e+00 2.50000000e-02 0.0
1.00000000e+00 5.00000000e-02 0.0
1.00000000e+00 7.50000000e-02 0.0
1.00000000e+00 1.00000000e-01 0.0
1.00000000e+00 1.25000000e-01 0.0
1.00000000e+00 1.50000000e-01 0.0
1.00000000e+00 1.75000000e-01 0.0
1.00000000e+00 2.00000000e-01 0.0
1.00000000e+00 2.25000000e-01 0.0
1.00000000e+00 2.50000000e-01 0.0
1.00000000e+00 2.75000000e-01 0.0
1.00000000e+00 3.00000000e-01 0.0
1.00000000e+00 3.25000000e-01 0.0
1.00000000e+00 3.50000000e-01 0.0
1.00000000e+00 3.75000000e-01 0.0
1.00000000e+00 4.00000000e-01 0.0
1.00000000e+00 4.25000000e-01 0.0
1.00000000e+00 4.50000000e-01 0.0
1.00000000e+00 4.75000000e-01 0.0
1.00000000e+00 5.00000000e-01 0.0
1.00000000e+00 5.25000000e-01 0.0
1.00000000e+00 5.50000000e-01 0.0
1.00000000e+00 5.75000000e-01 0.0
1.02500000e+00 -5.00000000e-02 0.0
1.02500000e+00 -2.50000000e-02 0.0
1.02500000e+00 0.00000000e+00 0.0
1.02500000e+00 2.50000000e-02 0.0
1.02500000e+00 5.00000000e-02 0.0
1.02500000e+00 7.50000000e-02 0.0
1.02500000e+00 1.00000000e-01 0.0
1.02500000e+00 1.25000000e-01 0.0
1.02500000e+00 1.50000000e-01 0.0
1.02500000e+00 1.75000000e-01 0.0
1.02500000e+00 2.00000000e-01 0.0
1.02500000e+00 2.25000000e-01 0.0
1.02500000e+00 2.50000000e-01 0.0
1.02500000e+00 2.75000000e-01 0.0
1.02500000e+00 3.00000000e-01 0.0
1.02500000e+00 3.25000000e-01 0.0
1.02500000e+00 3.50000000e-01 0.0
1.02500000e+00 3.75000000e-01 0.0
1.02500000e+00 4.00000000e-01 0.0
1.02500000e+00 4.25000000e-01 0.0
1.02500000e+00 4.50000000e-01 0.0
1.02500000e+00 4.75000000e-01 0.0
1.02500000e+00 5.00000000e-01 0.0
1.02500000e+00 5.25000000e-01 0.0
1.02500000e+00 5.50000000e-01 0.0
1.02500000e+00 5.75000000e-01 0.0
1.05000000e+00 -5.00000000e-02 0.0
1.05000000e+00 -2.50000000e-02 0.0
1.05000000e+00 0.00000000e+00 0.0
1.05000000e+00 2.50000000e-02 0.0
1.05000000e+00 5.00000000e-02 0.0
1.05000000e+00 7.50000000e-02 0.0
1.05000000e+00 1.00000000e-01 0.0
1.05000000e+00 1.25000000e-01 0.0
1.05000000e+00 1.50000000e-01 0.0
1.05000000e+00 1.75000000e-01 0.0
1.05000000e+00 2.00000000e-01 0.0
1.05000000e+00 2.25000000e-01 0.0
1.05000000e+00 2.50000000e-01 0.0
1.05000000e+00 2.75000000e-01 0.0
1.05000000e+00 3.00000000e-01 0.0
1.05000000e+00 3.25000000e-01 0.0
1.05000000e+00 3.50000000e-01 0.0
1.05000000e+00 3.75000000e-01 0.0
1.05000000e+00 4.00000000e-01 0.0
1.05000000e+00 4.25000000e-01 0.0
1.05000000e+00 4.50000000e-01 0.0
1.05000000e+00 4.75000000e-01 0.0
1.05000000e+00 5.00000000e-01 0.0
1.05000000e+00 5.25000000e-01 0.0
1.05000000e+00 5.50000000e-01 0.0
1.05000000e+00 5.75000000e-01 0.0
CELLS 444 888
1 0
1 1
1 2
1 3
1 4
1 5
1 6
1 7
1 8
1 9
1 10
1 11
1 12
1 13
1 14
1 15
1 16
1 17
1 18
1 19
1 20
1 21
1 22
1 23
1 24
1 25
1 26
1 27
1 28
1 29
1 30
1 31
1 32
1 33
1 34
1 35
1 36
1 37
1 38
1 39
1 40
1 41
1 42
1 43
1 44
1 45
1 46
1 47
1 48
1 49
1 50
1 51
1 52
1 53
1 54
1 55
1 56
1 57
1 58
1 59
1 60
1 61
1 62
1 63
1 64
1 65
1 66
1 67
1 68
1 69
1 70
1 71
1 72
1 73
1 74
1 75
1 76
1 77
1 78
1 79
1 80
1 81
1 82
1 83
1 84
1 85
1 86
1 87
1 88
1 89
1 90
1 91
1 92
1 93
1 94
1 95
1 96
1 97
1 98
1 99
1 100
1 101
1 102
1 103
1 104
1 105
1 106
1 107
1 108
1 109
1 110
1 111
1 112
1 113
1 114
1 115
1 116
1 117
1 118
1 119
1 120
1 121
1 122
1 123
1 124
1 125
1 126
1 127
1 128
1 129
1 130
1 131
1 132
1 133
1 134
1 135
1 136
1 137
1 138
1 139
1 140
1 141
1 142
1 143
1 144
1 145
1 146
1 147
1 148
1 149
1 150
1 151
1 152
1 153
1 154
1 155
1 156
1 157
1 158
1 159
1 160
1 161
1 162
1 163
1 164
1 165
1 166
1 167
1 168
1 169
1 170
1 171
1 172
1 173
1 174
1 175
1 176
1 177
1 178
1 179
1 180
1 181
1 182
1 183
1 184
1 185
1 186
1 187
1 188
1 189
1 190
1 191
1 192
1 193
1 194
1 195
1 196
1 197
1 198
1 199
1 200
1 201
1 202
1 203
1 204
1 205
1 206
1 207
1 208
1 209
1 210
1 211
1 212
1 213
1 214
1 215
1 216
1 217
1 218
1 219
1 220
1 221
1 222
1 223
1 224
1 225
1 226
1 227
1 228
1 229
1 230
1 231
1 232
1 233
1 234
1 235
1 236
1 237
1 238
1 239
1 240
1 241
1 242
1 243
1 244
1 245
1 246
1 247
1 248
1 249
1 250
1 251
1 252
1 253
1 254
1 255
1 256
1 257
1 258
1 259
1 260
1 261
1 262
1 263
1 264
1 265
1 266
1 267
1 268
1 269
1 270
1 271
1 272
1 273
1 274
1 275
1 276
1 277
1 278
1 279
1 280
1 281
1 282
1 283
1 284
1 285
1 286
1 287
1 288
1 289
1 290
1 291
1 292
1 293
1 294
1 295
1 296
1 297
1 298
1 299
1 300
1 301
1 302
1 303
1 304
1 305
1 306
1 307
1 308
1 309
1 310
1 311
1 312
1 313
1 314
1 315
1 316
1 317
1 318
1 319
1 320
1 321
1 322
1 323
1 324
1 325
1 326
1 327
1 328
1 329
1 330
1 331
1 332
1 333
1 334
1 335
1 336
1 337
1 338
1 339
1 340
1 341
1 342
1 343
1 344
1 345
1 346
1 347
1 348
1 349
1 350
1 351
1 352
1 353
1 354
1 355
1 356
1 357
1 358
1 359
1 360
1 361
1 362
1 363
1 364
1 365
1 366
1 367
1 368
1 369
1 370
1 371
1 372
1 373
1 374
1 375
1 376
1 377
1 378
1 379
1 380
1 381
1 382
1 383
1 384
1 385
1 386
1 387
1 388
1 389
1 390
1 391
1 392
1 393
1 394
1 395
1 396
1 397
1 398
1 399
1 400
1 401
1 402
1 403
1 404
1 405
1 406
1 407
1 408
1 409
1 410
1 411
1 412
1 413
1 414
1 415
1 416
1 417
1 418
1 419
1 420
1 421
1 422
1 423
1 424
1 425
1 426
1 427
1 428
1 429
1 430
1 431
1 432
1 433
1 434
1 435
1 436
1 437
1 438
1 439
1 440
1 441
1 442
1 443
CELL_TYPES 444
1
1
1
1
1
1
1
1
1
1
1
1
1
1
1
1
1
1
1
1
1
1
1
1
1
1
1
1
1
1
1
1
1
1
1
1
1
1
1
1
1
1
1
1
1
1
1
1
1
1
1
1
1
1
1
1
1
1
1
1
1
1
1
1
1
1
1
1
1
1
1
1
1
1
1
1
1
1
1
1
1
1
1
1
1
1
1
1
1
1
1
1
1
1
1
1
1
1
1
1
1
1
1
1
1
1
1
1
1
1
1
1
1
1
1
1
1
1
1
1
1
1
1
1
1
1
1
1
1
1
1
1
1
1
1
1
1
1
1
1
1
1
1
1
1
1
1
1
1
1
1
1
1
1
1
1
1
1
1
1
1
1
1
1
1
1
1
1
1
1
1
1
1
1
1
1
1
1
1
1
1
1
1
1
1
1
1
1
1
1
1
1
1
1
1
1
1
1
1
1
1
1
1
1
1
1
1
1
1
1
1
1
1
1
1
1
1
1
1
1
1
1
1
1
1
1
1
1
1
1
1
1
1
1
1
1
1
1
1
1
1
1
1
1
1
1
1
1
1
1
1
1
1
1
1
1
1
1
1
1
1
1
1
1
1
1
1
1
1
1
1
1
1
1
1
1
1
1
1
1
1
1
1
1
1
1
1
1
1
1
1
1
1
1
1
1
1
1
1
1
1
1
1
1
1
1
1
1
1
1
1
1
1
1
1
1
1
1
1
1
1
1
1
1
1
1
1
1
1
1
1
1
1
1
1
1
1
1
1
1
1
1
1
1
1
1
1
1
1
1
1
1
1
1
1
1
1
1
1
1
1
1
1
1
1
1
1
1
1
1
1
1
1
1
1
1
1
1
1
1
1
1
1
1
1
1
1
1
1
1
1
1
1
1
1
1
1
1
1
1
1
1
1
1
1
1
1
1
1
1
1
1
1
1
1
1
1
1
1
1
1
1
1
1
1
1
1
1
1
1
1
1
1
1
1
1
1
1
1
1
1
1
1
1
POINT_DATA 444
SCALARS pressure double 1
LOOKUP_TABLE default
0.00000000e+00
0.00000000e+00
0.00000000e+00
0.00000000e+00
0.00000000e+00
0.00000000e+00
0.00000000e+00
0.00000000e+00
0.00000000e+00
0.00000000e+00
0.00000000e+00
0.00000000e+00
0.00000000e+00
0.00000000e+00
0.00000000e+00
0.00000000e+00
0.00000000e+00
0.00000000e+00
0.00000000e+00
0.00000000e+00
0.00000000e+00
0.00000000e+00
0.00000000e+00
0.00000000e+00
0.00000000e+00
0.00000000e+00
0.00000000e+00
0.00000000e+00
0.00000000e+00
0.00000000e+00
0.00000000e+00
0.00000000e+00
0.00000000e+00
0.00000000e+00
0.00000000e+00
0.00000000e+00
0.00000000e+00
0.00000000e+00
0.00000000e+00
0.00000000e+00
0.00000000e+00
0.00000000e+00
0.00000000e+00
0.00000000e+00
0.00000000e+00
0.00000000e+00
0.00000000e+00
0.00000000e+00
0.00000000e+00
0.00000000e+00
0.00000000e+00
0.00000000e+00
0.00000000e+00
0.00000000e+00
0.00000000e+00
0.00000000e+00
0.00000000e+00
0.00000000e+00
0.00000000e+00
0.00000000e+00
0.00000000e+00
0.00000000e+00
0.00000000e+00
0.00000000e+00
0.00000000e+00
0.00000000e+00
0.00000000e+00
0.00000000e+00
0.00000000e+00
0.00000000e+00
0.00000000e+00
0.00000000e+00
0.00000000e+00
0.00000000e+00
0.00000000e+00
0.00000000e+00
0.00000000e+00
0.00000000e+00
0.00000000e+00
0.00000000e+00
0.00000000e+00
5.04067862e+04
8.32231751e+03
2.62662112e+04
0.00000000e+00
1.24402268e+04
0.00000000e+00
8.09405349e+03
8.70603794e+02
4.84281920e+03
1.88008430e+03
3.06162788e+03
1.71063437e+03
2.35487534e+03
1.00925190e+03
1.36686140e+03
8.56606173e+02
5.07117800e+02
4.61924485e+02
0.00000000e+00
0.00000000e+00
0.00000000e+00
0.00000000e+00
2.02338499e+04
8.17559257e+03
5.87714699e+03
4.42645296e+03
2.66327751e+03
0.00000000e+00
2.04416883e+03
0.00000000e+00
7.81832478e+02
0.00000000e+00
1.22351785e+02
0.00000000e+00
0.00000000e+00
0.00000000e+00
0.00000000e+00
0.00000000e+00
0.00000000e+00
0.00000000e+00
0.00000000e+00
0.00000000e+00
0.00000000e+00
0.00000000e+00
3.01462810e+04
0.00000000e+00
5.80072584e+03
2.55464317e+03
1.42120382e+03
2.53595922e+03
2.12877217e+03
1.35482136e+03
2.17816557e+03
1.71803985e+03
1.75985460e+03
1.24807523e+03
1.44482783e+03
7.06427253e+02
1.07437141e+03
6.45617002e+02
4.62582114e+02
2.21847247e+02
0.00000000e+00
0.00000000e+00
0.00000000e+00
0.00000000e+00
1.78566341e+04
1.62260234e+03
4.97566162e+03
1.03679275e+03
2.85555893e+03
6.00551571e+02
1.18218966e+03
1.01960276e+02
1.87460900e+02
1.03640899e+02
0.00000000e+00
6.82279001e+00
2.74607770e+02
0.00000000e+00
0.00000000e+00
0.00000000e+00
0.00000000e+00
0.00000000e+00
0.00000000e+00
0.00000000e+00
0.00000000e+00
0.00000000e+00
2.50646623e+04
1.25899703e+03
3.40823376e+03
6.21740369e+02
1.92511430e+03
4.19667082e+02
1.66641778e+03
1.00830724e+03
1.37495375e+03
1.25226336e+03
1.07979012e+03
7.78365966e+02
9.68458489e+02
0.00000000e+00
8.04471763e+02
2.28929659e+02
2.96971881e+02
1.03787304e+02
0.00000000e+00
0.00000000e+00
0.00000000e+00
0.00000000e+00
2.36834532e+04
0.00000000e+00
3.59420416e+03
6.04393571e+02
1.39939959e+03
3.26798203e+02
4.17622892e+02
4.95933280e+01
9.65540130e+00
0.00000000e+00
0.00000000e+00
0.00000000e+00
2.94502766e+00
0.00000000e+00
2.45189739e+02
0.00000000e+00
0.00000000e+00
1.11919703e+02
0.00000000e+00
0.00000000e+00
0.00000000e+00
0.00000000e+00
1.98070890e+04
9.33483645e+02
2.18521044e+03
0.00000000e+00
1.16914335e+03
2.23053601e+02
1.04213873e+03
4.25701935e+02
9.50630368e+02
4.17567002e+02
8.66308059e+02
2.68469471e+02
8.19804058e+02
7.03389188e+01
3.48823790e+02
0.00000000e+00
4.39931553e+01
1.94012009e+02
0.00000000e+00
0.00000000e+00
0.00000000e+00
0.00000000e+00
1.00607784e+04
0.00000000e+00
2.64520554e+03
0.00000000e+00
9.85551276e+02
0.00000000e+00
2.36480248e+02
0.00000000e+00
0.00000000e+00
0.00000000e+00
0.00000000e+00
0.00000000e+00
1.19672123e+02
0.00000000e+00
0.00000000e+00
1.01784360e+02
2.97149807e+02
0.00000000e+00
0.00000000e+00
0.00000000e+00
0.00000000e+00
0.00000000e+00
0.00000000e+00
0.00000000e+00
0.00000000e+00
0.00000000e+00
0.00000000e+00
0.00000000e+00
0.00000000e+00
0.00000000e+00
0.00000000e+00
0.00000000e+00
0.00000000e+00
0.00000000e+00
0.00000000e+00
0.00000000e+00
0.00000000e+00
0.00000000e+00
0.00000000e+00
0.00000000e+00
0.00000000e+00
0.00000000e+00
0.00000000e+00
0.00000000e+00
0.00000000e+00
0.00000000e+00
0.00000000e+00
0.00000000e+00
0.00000000e+00
0.00000000e+00
0.00000000e+00
0.00000000e+00
0.00000000e+00
0.00000000e+00
0.00000000e+00
0.00000000e+00
0.00000000e+00
0.00000000e+00
0.00000000e+00
0.00000000e+00
0.00000000e+00
0.00000000e+00
0.00000000e+00
0.00000000e+00
0.00000000e+00
0.00000000e+00
0.00000000e+00
0.00000000e+00
0.00000000e+00
0.00000000e+00
0.00000000e+00
0.00000000e+00
0.00000000e+00
0.00000000e+00
0.00000000e+00
0.00000000e+00
0.00000000e+00
0.00000000e+00
0.00000000e+00
0.00000000e+00
0.00000000e+00
0.00000000e+00
0.00000000e+00
0.00000000e+00
0.00000000e+00
0.00000000e+00
0.00000000e+00
0.00000000e+00
0.00000000e+00
0.00000000e+00
0.00000000e+00
0.00000000e+00
0.00000000e+00
0.00000000e+00
0.00000000e+00
0.00000000e+00
0.00000000e+00
0.00000000e+00
0.00000000e+00
0.00000000e+00
0.00000000e+00
0.00000000e+00
0.00000000e+00
0.00000000e+00
0.00000000e+00
0.00000000e+00
0.00000000e+00
0.00000000e+00
0.00000000e+00
0.00000000e+00
0.00000000e+00
0.00000000e+00
0.00000000e+00
0.00000000e+00
0.00000000e+00
0.00000000e+00
0.00000000e+00
0.00000000e+00
0.00000000e+00
0.00000000e+00
0.00000000e+00
0.00000000e+00
0.00000000e+00
0.00000000e+00
0.00000000e+00
0.00000000e+00
0.00000000e+00
0.00000000e+00
0.00000000e+00
0.00000000e+00
0.00000000e+00
0.00000000e+00
0.00000000e+00
0.00000000e+00
0.00000000e+00
0.00000000e+00
0.00000000e+00
0.00000000e+00
0.00000000e+00
0.00000000e+00
0.00000000e+00
0.00000000e+00
0.00000000e+00
0.00000000e+00
0.00000000e+00
0.00000000e+00
0.00000000e+00
0.00000000e+00
0.00000000e+00
0.00000000e+00
0.00000000e+00
0.00000000e+00
0.00000000e+00
0.00000000e+00
0.00000000e+00
0.00000000e+00
0.00000000e+00
0.00000000e+00
0.00000000e+00
0.00000000e+00
0.00000000e+00
0.00000000e+00
0.00000000e+00
0.00000000e+00
0.00000000e+00
0.00000000e+00
0.00000000e+00
0.00000000e+00
0.00000000e+00
0.00000000e+00
0.00000000e+00
0.00000000e+00
0.00000000e+00
0.00000000e+00
0.00000000e+00
0.00000000e+00
0.00000000e+00
0.00000000e+00
0.00000000e+00
0.00000000e+00
0.00000000e+00
0.00000000e+00
0.00000000e+00
0.00000000e+00
0.00000000e+00
0.00000000e+00
0.00000000e+00
0.00000000e+00
0.00000000e+00
0.00000000e+00
0.00000000e+00
0.00000000e+00
0.00000000e+00
0.00000000e+00
0.00000000e+00
0.00000000e+00
0.00000000e+00
0.00000000e+00
0.00000000e+00
0.00000000e+00
0.00000000e+00
0.00000000e+00
0.00000000e+00
0.00000000e+00
0.00000000e+00
0.00000000e+00
0.00000000e+00
0.00000000e+00
0.00000000e+00
SCALARS type int 1
LOOKUP_TABLE default
1
1
1
1
1
1
1
1
1
1
1
1
1
1
1
1
1
1
1
1
1
1
1
1
1
1
1
1
1
1
1
1
1
1
1
1
1
1
1
1
1
1
1
1
1
1
1
1
1
1
1
1
1
1
1
1
1
1
1
1
1
1
1
1
1
1
1
1
1
1
1
1
1
1
1
1
1
1
1
1
1
0
0
0
0
0
0
0
0
0
0
0
0
0
0
0
0
0
0
0
1
1
1
0
0
0
0
0
0
0
0
0
0
0
0
0
0
0
0
0
0
0
1
1
1
0
0
0
0
0
0
0
0
0
0
0
0
0
0
0
0
0
0
0
1
1
1
0
0
0
0
0
0
0
0
0
0
0
0
0
0
0
0
0
0
0
1
1
1
0
0
0
0
0
0
0
0
0
0
0
0
0
0
0
0
0
0
0
1
1
1
0
0
0
0
0
0
0
0
0
0
0
0
0
0
0
0
0
0
0
1
1
1
0
0
0
0
0
0
0
0
0
0
0
0
0
0
0
0
0
0
0
1
1
1
0
0
0
0
0
0
0
0
0
0
0
0
0
0
0
0
0
0
0
1
1
1
0
0
0
0
0
0
0
0
0
0
0
0
0
0
0
0
0
0
0
1
1
1
1
1
1
1
1
1
1
1
1
1
1
1
1
1
1
1
1
1
1
1
1
1
1
1
1
1
1
1
1
1
1
1
1
1
1
1
1
1
1
1
1
1
1
1
1
1
1
1
1
1
1
1
1
1
1
1
1
1
1
1
1
1
1
1
1
1
1
1
1
1
1
1
1
1
1
1
1
1
1
1
1
1
1
1
1
1
1
1
1
1
1
1
1
1
1
1
1
1
1
1
1
1
1
1
1
1
1
1
1
1
1
1
1
1
1
1
1
1
1
1
1
1
1
1
1
1
1
1
1
1
1
1
1
1
1
1
1
1
1
1
1
1
1
1
1
1
1
1
1
1
1
1
1
1
1
1
1
1
1
1
1
1
1
1
1
VECTORS velocity double
0.00000000e+00 0.00000000e+00 0.0
0.00000000e+00 0.00000000e+00 0.0
0.00000000e+00 0.00000000e+00 0.0
0.00000000e+00 0.00000000e+00 0.0
0.00000000e+00 0.00000000e+00 0.0
0.00000000e+00 0.00000000e+00 0.0
0.00000000e+00 0.00000000e+00 0.0
0.00000000e+00 0.00000000e+00 0.0
0.00000000e+00 0.00000000e+00 0.0
0.00000000e+00 0.00000000e+00 0.0
0.00000000e+00 0.00000000e+00 0.0
0.00000000e+00 0.00000000e+00 0.0
0.00000000e+00 0.00000000e+00 0.0
0.00000000e+00 0.00000000e+00 0.0
0.00000000e+00 0.00000000e+00 0.0
0.00000000e+00 0.00000000e+00 0.0
0.00000000e+00 0.00000000e+00 0.0
0.00000000e+00 0.00000000e+00 0.0
0.00000000e+00 0.00000000e+00 0.0
0.00000000e+00 0.00000000e+00 0.0
0.00000000e+00 0.00000000e+00 0.0
0.00000000e+00 0.00000000e+00 0.0
0.00000000e+00 0.00000000e+00 0.0
0.00000000e+00 0.00000000e+00 0.0
0.00000000e+00 0.00000000e+00 0.0
0.00000000e+00 0.00000000e+00 0.0
0.00000000e+00 0.00000000e+00 0.0
0.00000000e+00 0.00000000e+00 0.0
0.00000000e+00 0.00000000e+00 0.0
0.00000000e+00 0.00000000e+00 0.0
0.00000000e+00 0.00000000e+00 0.0
0.00000000e+00 0.00000000e+00 0.0
0.00000000e+00 0.00000000e+00 0.0
0.00000000e+00 0.00000000e+00 0.0
0.00000000e+00 0.00000000e+00 0.0
0.00000000e+00 0.00000000e+00 0.0
0.00000000e+00 0.00000000e+00 0.0
0.00000000e+00 0.00000000e+00 0.0
0.00000000e+00 0.00000000e+00 0.0
0.00000000e+00 0.00000000e+00 0.0
0.00000000e+00 0.00000000e+00 0.0
0.00000000e+00 0.00000000e+00 0.0
0.00000000e+00 0.00000000e+00 0.0
0.00000000e+00 0.00000000e+00 0.0
0.00000000e+00 0.00000000e+00 0.0
0.00000000e+00 0.00000000e+00 0.0
0.00000000e+00 0.00000000e+00 0.0
0.00000000e+00 0.00000000e+00 0.0
0.00000000e+00 0.00000000e+00 0.0
0.00000000e+00 0.00000000e+00 0.0
0.00000000e+00 0.00000000e+00 0.0
0.00000000e+00 0.00000000e+00 0.0
0.00000000e+00 0.00000000e+00 0.0
0.00000000e+00 0.00000000e+00 0.0
0.00000000e+00 0.00000000e+00 0.0
0.00000000e+00 0.00000000e+00 0.0
0.00000000e+00 0.00000000e+00 0.0
0.00000000e+00 0.00000000e+00 0.0
0.00000000e+00 0.00000000e+00 0.0
0.00000000e+00 0.00000000e+00 0.0
0.00000000e+00 0.00000000e+00 0.0
0.00000000e+00 0.00000000e+00 0.0
0.00000000e+00 0.00000000e+00 0.0
0.00000000e+00 0.00000000e+00 0.0
0.00000000e+00 0.00000000e+00 0.0
0.00000000e+00 0.00000000e+00 0.0
0.00000000e+00 0.00000000e+00 0.0
0.00000000e+00 0.00000000e+00 0.0
0.00000000e+00 0.00000000e+00 0.0
0.00000000e+00 0.00000000e+00 0.0
0.00000000e+00 0.00000000e+00 0.0
0.00000000e+00 0.00000000e+00 0.0
0.00000000e+00 0.00000000e+00 0.0
0.00000000e+00 0.00000000e+00 0.0
0.00000000e+00 0.00000000e+00 0.0
0.00000000e+00 0.00000000e+00 0.0
0.00000000e+00 0.00000000e+00 0.0
0.00000000e+00 0.00000000e+00 0.0
0.00000000e+00 0.00000000e+00 0.0
0.00000000e+00 0.00000000e+00 0.0
0.00000000e+00 0.00000000e+00 0.0
1.19632590e-02 -1.20258541e-01 0.0
7.74874966e-01 5.49588804e-02 0.0
5.66936646e-02 -3.80090697e-01 0.0
5.86800008e-01 -4.42064818e-01 0.0
-4.02085538e-01 -3.58670680e-01 0.0
1.46205942e-01 -2.57182163e-01 0.0
-2.77871507e-01 -3.50951371e-01 0.0
-9.86657805e-03 -1.32588486e-01 0.0
-1.74299219e-01 -2.65861969e-01 0.0
-5.14523667e-02 -2.07576596e-01 0.0
-1.00798262e-01 -2.84104622e-01 0.0
-5.22804738e-02 -2.47749641e-01 0.0
-6.99505314e-02 -3.08116407e-01 0.0
-4.11704105e-02 -3.28810323e-01 0.0
-5.28854569e-02 -3.46473887e-01 0.0
-3.57561045e-02 -3.48007191e-01 0.0
-2.74112833e-02 -4.12675348e-01 0.0
-2.61596258e-02 -3.49361402e-01 0.0
-4.93300540e-03 -4.13495512e-01 0.0
0.00000000e+00 0.00000000e+00 0.0
0.00000000e+00 0.00000000e+00 0.0