# vtk DataFile Version 3.0
MPS Simulation Step 2300
ASCII
DATASET UNSTRUCTURED_GRID
POINTS 437 double
-5.00000000e-02 -5.00000000e-02 0.0
-5.00000000e-02 -2.50000000e-02 0.0
-5.00000000e-02 0.00000000e+00 0.0
-5.00000000e-02 2.50000000e-02 0.0
-5.00000000e-02 5.00000000e-02 0.0
-5.00000000e-02 7.50000000e-02 0.0
-5.00000000e-02 1.00000000e-01 0.0
-5.00000000e-02 1.25000000e-01 0.0
-5.00000000e-02 1.50000000e-01 0.0
-5.00000000e-02 1.75000000e-01 0.0
-5.00000000e-02 2.00000000e-01 0.0
-5.00000000e-02 2.25000000e-01 0.0
-5.00000000e-02 2.50000000e-01 0.0
-5.00000000e-02 2.75000000e-01 0.0
-5.00000000e-02 3.00000000e-01 0.0
-5.00000000e-02 3.25000000e-01 0.0
-5.00000000e-02 3.50000000e-01 0.0
-5.00000000e-02 3.75000000e-01 0.0
-5.00000000e-02 4.00000000e-01 0.0
-5.00000000e-02 4.25000000e-01 0.0
-5.00000000e-02 4.50000000e-01 0.0
-5.00000000e-02 4.75000000e-01 0.0
-5.00000000e-02 5.00000000e-01 0.0
-5.00000000e-02 5.25000000e-01 0.0
-5.00000000e-02 5.50000000e-01 0.0
-5.00000000e-02 5.75000000e-01 0.0
-2.50000000e-02 -5.00000000e-02 0.0
-2.50000000e-02 -2.50000000e-02 0.0
-2.50000000e-02 0.00000000e+00 0.0
-2.50000000e-02 2.50000000e-02 0.0
-2.50000000e-02 5.00000000e-02 0.0
-2.50000000e-02 7.50000000e-02 0.0
-2.50000000e-02 1.00000000e-01 0.0
-2.50000000e-02 1.25000000e-01 0.0
-2.50000000e-02 1.50000000e-01 0.0
-2.50000000e-02 1.75000000e-01 0.0
-2.50000000e-02 2.00000000e-01 0.0
-2.50000000e-02 2.25000000e-01 0.0
-2.50000000e-02 2.50000000e-01 0.0
-2.50000000e-02 2.75000000e-01 0.0
-2.50000000e-02 3.00000000e-01 0.0
-2.50000000e-02 3.25000000e-01 0.0
-2.50000000e-02 3.50000000e-01 0.0
-2.50000000e-02 3.75000000e-01 0.0
-2.50000000e-02 4.00000000e-01 0.0
-2.50000000e-02 4.25000000e-01 0.0
-2.50000000e-02 4.50000000e-01 0.0
-2.50000000e-02 4.75000000e-01 0.0
-2.50000000e-02 5.00000000e-01 0.0
-2.50000000e-02 5.25000000e-01 0.0
-2.50000000e-02 5.50000000e-01 0.0
-2.50000000e-02 5.75000000e-01 0.0
0.00000000e+00 -5.00000000e-02 0.0
0.00000000e+00 -2.50000000e-02 0.0
0.00000000e+00 0.00000000e+00 0.0
0.00000000e+00 2.50000000e-02 0.0
0.00000000e+00 5.00000000e-02 0.0
0.00000000e+00 7.50000000e-02 0.0
0.00000000e+00 1.00000000e-01 0.0
0.00000000e+00 1.25000000e-01 0.0
0.00000000e+00 1.50000000e-01 0.0
0.00000000e+00 1.75000000e-01 0.0
0.00000000e+00 2.00000000e-01 0.0
0.00000000e+00 2.25000000e-01 0.0
0.00000000e+00 2.50000000e-01 0.0
0.00000000e+00 2.75000000e-01 0.0
0.00000000e+00 3.00000000e-01 0.0
0.00000000e+00 3.25000000e-01 0.0
0.00000000e+00 3.50000000e-01 0.0
0.00000000e+00 3.75000000e-01 0.0
0.00000000e+00 4.00000000e-01 0.0
0.00000000e+00 4.25000000e-01 0.0
0.00000000e+00 4.50000000e-01 0.0
0.00000000e+00 4.75000000e-01 0.0
0.00000000e+00 5.00000000e-01 0.0
0.00000000e+00 5.25000000e-01 0.0
0.00000000e+00 5.50000000e-01 0.0
0.00000000e+00 5.75000000e-01 0.0
2.50000000e-02 -5.00000000e-02 0.0
2.50000000e-02 -2.50000000e-02 0.0
2.50000000e-02 0.00000000e+00 0.0
8.66899499e-02 2.23620375e-01 0.0
3.22374009e-01 1.35116243e-01 0.0
1.61944816e-01 2.69834906e-02 0.0
3.13821289e-01 6.18773674e-02 0.0
3.49484694e-02 6.73281212e-02 0.0
4.36296532e-01 2.35404926e-02 0.0
4.67140000e-02 1.72174577e-01 0.0
2.28507735e-01 1.45688006e-01 0.0
2.68061090e-01 1.10208737e-01 0.0
3.18311121e-01 1.52092319e-01 0.0
2.69945004e-01 6.01038887e-02 0.0
2.87531048e-01 6.05269375e-02 0.0
2.52350952e-01 1.31086074e-01 0.0
6.80101445e-02 6.79536952e-02 0.0
2.17732157e-01 3.68434984e-02 0.0
2.29753658e-01 2.03340535e-02 0.0
1.44789015e-01 8.88767652e-02 0.0
1.37251400e-02 2.14059089e-02 0.0
4.21631244e-02 8.61538167e-02 0.0
5.00000000e-02 -5.00000000e-02 0.0
5.00000000e-02 -2.50000000e-02 0.0
5.00000000e-02 0.00000000e+00 0.0
3.29207323e-01 6.63027524e-02 0.0
5.06521860e-01 9.60235590e-02 0.0
3.46556176e-01 2.04289863e-02 0.0
4.01343109e-01 1.39298265e-01 0.0
4.30762102e-01 8.83030229e-02 0.0
3.79358996e-01 9.32645612e-02 0.0
4.10028710e-01 3.07055405e-02 0.0
4.40176771e-01 1.16371338e-01 0.0
2.45057451e-01 1.09311986e-01 0.0
8.46502195e-02 3.77284015e-02 0.0
3.55055406e-01 3.21614104e-02 0.0
1.35432632e-01 3.36129379e-02 0.0
4.92546128e-01 6.26867007e-02 0.0
2.94238958e-01 3.51778985e-02 0.0
2.92817389e-01 8.22071968e-02 0.0
7.82457028e-02 1.05323227e-01 0.0
7.47252483e-02 1.97919329e-02 0.0
2.28478068e-01 1.04892752e-01 0.0
2.14582296e-01 8.01128713e-02 0.0
7.50000000e-02 -5.00000000e-02 0.0
7.50000000e-02 -2.50000000e-02 0.0
7.50000000e-02 0.00000000e+00 0.0
5.57283015e-02 4.96141605e-02 0.0
7.35330901e-01 6.58458999e-02 0.0
2.08090428e-02 7.28446101e-02 0.0
2.53581593e-01 3.74750013e-02 0.0
7.72070701e-01 6.15632451e-02 0.0
5.92642194e-01 4.46382733e-02 0.0
9.15892829e-01 1.30937385e-01 0.0
4.40643186e-01 1.54377829e-01 0.0
4.07703460e-01 1.65024134e-01 0.0
3.47491849e-01 7.70764593e-02 0.0
4.95397117e-01 1.71665005e-02 0.0
4.74612476e-01 1.31101487e-01 0.0
9.71039571e-02 1.74668207e-02 0.0
5.33396736e-01 1.53919517e-01 0.0
4.87548444e-01 4.47495410e-02 0.0
4.13297762e-01 2.53473415e-01 0.0
2.60922694e-01 2.15173480e-02 0.0
3.50363608e-01 1.33706365e-01 0.0
2.01099159e-01 8.37179776e-02 0.0
1.00000000e-01 -5.00000000e-02 0.0
1.00000000e-01 -2.50000000e-02 0.0
1.00000000e-01 0.00000000e+00 0.0
4.61963635e-01 1.23069457e-01 0.0
5.73947016e-01 1.20802646e-01 0.0
4.44389747e-01 4.01152246e-02 0.0
8.35840999e-01 3.79922668e-02 0.0
8.01916714e-01 8.88783986e-02 0.0
4.14992264e-01 8.44454716e-02 0.0
8.15630579e-01 9.93268577e-02 0.0
9.13166353e-01 1.45114091e-01 0.0
9.68839145e-01 8.59504923e-02 0.0
4.26658369e-01 2.70510386e-01 0.0
5.07008026e-01 4.63733039e-02 0.0
6.10049379e-01 6.08214632e-02 0.0
9.18662222e-01 6.70553976e-02 0.0
5.81291225e-01 6.36044853e-02 0.0
4.99642351e-01 2.03464012e-01 0.0
9.22767092e-01 1.62925731e-01 0.0
5.50955855e-01 1.55605815e-01 0.0
5.45080746e-01 1.00632415e-01 0.0
4.17312941e-01 1.12333565e-01 0.0
1.25000000e-01 -5.00000000e-02 0.0
1.25000000e-01 -2.50000000e-02 0.0
1.25000000e-01 0.00000000e+00 0.0
7.26775085e-01 8.34478678e-02 0.0
2.79723544e-01 1.01601524e-01 0.0
4.67614108e-01 1.52252827e-01 0.0
4.16503061e-01 5.22863268e-02 0.0
8.99548584e-01 1.11387987e-01 0.0
6.46836043e-01 1.41933946e-01 0.0
5.90846699e-01 1.88733305e-01 0.0
8.95340923e-01 3.73323058e-01 0.0
6.16691893e-01 1.39877594e-01 0.0
7.00852691e-01 7.77563950e-02 0.0
5.33454855e-01 1.08794161e-01 0.0
6.25211230e-01 9.94418903e-02 0.0
5.99154604e-01 1.76471581e-02 0.0
8.46584142e-01 1.00893849e-01 0.0
7.60521646e-01 5.12412266e-02 0.0
8.61261452e-01 2.12178512e-02 0.0
5.37200087e-01 1.26706939e-02 0.0
7.57326020e-01 1.33847162e-02 0.0
3.89982967e-01 8.38444946e-02 0.0
1.50000000e-01 -5.00000000e-02 0.0
1.50000000e-01 -2.50000000e-02 0.0
1.50000000e-01 0.00000000e+00 0.0
9.33247865e-01 1.45374714e-02 0.0
9.42001249e-01 7.38136584e-02 0.0
5.95601700e-01 1.22270754e-01 0.0
9.17062064e-01 2.09097364e-01 0.0
9.87311713e-01 1.86311579e-01 0.0
6.32603505e-01 7.89738223e-02 0.0
9.83794767e-01 1.60240748e-02 0.0
9.81730012e-01 2.24649491e-01 0.0
6.75435249e-01 2.47704466e-02 0.0
9.42471785e-01 1.62734222e-01 0.0
6.13440187e-01 1.21475161e-01 0.0
8.78074036e-01 4.40521864e-02 0.0
6.68248389e-01 9.99667231e-02 0.0
6.43193125e-01 1.65495878e-01 0.0
7.73574830e-01 1.06875678e-01 0.0
5.43619951e-01 1.98911347e-01 0.0
6.52345848e-01 8.47843186e-02 0.0
6.11967659e-01 4.16701337e-02 0.0
1.75000000e-01 -5.00000000e-02 0.0
1.75000000e-01 -2.50000000e-02 0.0
1.75000000e-01 0.00000000e+00 0.0
7.86622763e-01 1.08203093e-01 0.0
8.93086703e-01 6.93092454e-02 0.0
3.97093180e-01 5.60862865e-02 0.0
9.16628265e-01 1.77424477e-01 0.0
7.09793077e-01 2.82794599e-02 0.0
7.95852570e-01 6.62215416e-02 0.0
8.09991730e-01 3.10979075e-02 0.0
6.84002307e-01 1.39328080e-01 0.0
7.02457908e-01 5.85264367e-02 0.0
5.19243803e-01 5.85103883e-02 0.0
3.64379395e-01 5.89525954e-02 0.0
6.40784193e-01 2.53499852e-02 0.0
9.17791553e-01 2.43168346e-02 0.0
6.10858784e-01 1.70166722e-01 0.0
6.75152961e-01 1.10805684e-01 0.0
3.54952397e-01 8.85987355e-02 0.0
7.75195265e-01 8.49336762e-02 0.0
2.00000000e-01 -5.00000000e-02 0.0
2.00000000e-01 -2.50000000e-02 0.0
2.00000000e-01 0.00000000e+00 0.0
9.22502373e-01 8.59246996e-02 0.0
1.57714215e-01 6.50773831e-02 0.0
8.84295789e-01 2.90088848e-02 0.0
5.75993801e-01 1.40143630e-01 0.0
3.81935811e-01 1.74673387e-01 0.0
6.23409678e-01 1.73052789e-01 0.0
9.62256195e-01 1.22138715e-01 0.0
4.71195413e-01 6.68330339e-02 0.0
9.39024706e-01 2.06144294e-01 0.0
3.09868544e-01 2.30607122e-02 0.0
1.99394898e-01 2.84412787e-02 0.0
5.79381888e-01 8.38592627e-02 0.0
5.48137334e-01 1.28930901e-01 0.0
4.59586655e-01 1.62174082e-01 0.0
9.73275301e-01 7.45806970e-02 0.0
3.94914610e-01 1.59911628e-02 0.0
7.97673562e-01 1.76024010e-02 0.0
8.30648537e-01 1.08451608e-01 0.0
2.25000000e-01 -5.00000000e-02 0.0
2.25000000e-01 -2.50000000e-02 0.0
2.25000000e-01 0.00000000e+00 0.0
5.56859476e-01 5.41935154e-02 0.0
7.21534808e-01 1.39190729e-01 0.0
6.53941834e-01 6.11695743e-02 0.0
6.03853763e-01 2.07944301e-01 0.0
8.74580048e-01 6.94821709e-02 0.0
5.08801422e-01 1.08746944e-01 0.0
6.60345018e-01 1.34543950e-01 0.0
7.13464524e-01 1.19061281e-01 0.0
5.72659326e-01 1.54285584e-02 0.0
7.16635886e-01 9.32816619e-02 0.0
5.92022881e-01 9.17392427e-02 0.0
5.17827225e-01 2.37014929e-01 0.0
7.22725541e-01 2.58066105e-02 0.0
9.11706808e-01 4.90483600e-02 0.0
5.33163887e-01 2.21414163e-01 0.0
9.77471275e-01 1.43105352e-01 0.0
2.50000000e-01 -5.00000000e-02 0.0
2.50000000e-01 -2.50000000e-02 0.0
2.50000000e-01 0.00000000e+00 0.0
2.75000000e-01 -5.00000000e-02 0.0
2.75000000e-01 -2.50000000e-02 0.0
2.75000000e-01 0.00000000e+00 0.0
3.00000000e-01 -5.00000000e-02 0.0
3.00000000e-01 -2.50000000e-02 0.0
3.00000000e-01 0.00000000e+00 0.0
3.25000000e-01 -5.00000000e-02 0.0
3.25000000e-01 -2.50000000e-02 0.0
3.25000000e-01 0.00000000e+00 0.0
3.50000000e-01 -5.00000000e-02 0.0
3.50000000e-01 -2.50000000e-02 0.0
3.50000000e-01 0.00000000e+00 0.0
3.75000000e-01 -5.00000000e-02 0.0
3.75000000e-01 -2.50000000e-02 0.0
3.75000000e-01 0.00000000e+00 0.0
4.00000000e-01 -5.00000000e-02 0.0
4.00000000e-01 -2.50000000e-02 0.0
4.00000000e-01 0.00000000e+00 0.0
4.25000000e-01 -5.00000000e-02 0.0
4.25000000e-01 -2.50000000e-02 0.0
4.25000000e-01 0.00000000e+00 0.0
4.50000000e-01 -5.00000000e-02 0.0
4.50000000e-01 -2.50000000e-02 0.0
4.50000000e-01 0.00000000e+00 0.0
4.75000000e-01 -5.00000000e-02 0.0
4.75000000e-01 -2.50000000e-02 0.0
4.75000000e-01 0.00000000e+00 0.0
5.00000000e-01 -5.00000000e-02 0.0
5.00000000e-01 -2.50000000e-02 0.0
5.00000000e-01 0.00000000e+00 0.0
5.25000000e-01 -5.00000000e-02 0.0
5.25000000e-01 -2.50000000e-02 0.0
5.25000000e-01 0.00000000e+00 0.0
5.50000000e-01 -5.00000000e-02 0.0
5.50000000e-01 -2.50000000e-02 0.0
5.50000000e-01 0.00000000e+00 0.0
5.75000000e-01 -5.00000000e-02 0.0
5.75000000e-01 -2.50000000e-02 0.0
5.75000000e-01 0.00000000e+00 0.0
6.00000000e-01 -5.00000000e-02 0.0
6.00000000e-01 -2.50000000e-02 0.0
6.00000000e-01 0.00000000e+00 0.0
6.25000000e-01 -5.00000000e-02 0.0
6.25000000e-01 -2.50000000e-02 0.0
6.25000000e-01 0.00000000e+00 0.0
6.50000000e-01 -5.00000000e-02 0.0
6.50000000e-01 -2.50000000e-02 0.0
6.50000000e-01 0.00000000e+00 0.0
6.75000000e-01 -5.00000000e-02 0.0
6.75000000e-01 -2.50000000e-02 0.0
6.75000000e-01 0.00000000e+00 0.0
7.00000000e-01 -5.00000000e-02 0.0
7.00000000e-01 -2.50000000e-02 0.0
7.00000000e-01 0.00000000e+00 0.0
7.25000000e-01 -5.00000000e-02 0.0
7.25000000e-01 -2.50000000e-02 0.0
7.25000000e-01 0.00000000e+00 0.0
7.50000000e-01 -5.00000000e-02 0.0
7.50000000e-01 -2.50000000e-02 0.0
7.50000000e-01 0.00000000e+00 0.0
7.75000000e-01 -5.00000000e-02 0.0
7.75000000e-01 -2.50000000e-02 0.0
7.75000000e-01 0.00000000e+00 0.0
8.00000000e-01 -5.00000000e-02 0.0
8.00000000e-01 -2.50000000e-02 0.0
8.00000000e-01 0.00000000e+00 0.0
8.25000000e-01 -5.00000000e-02 0.0
8.25000000e-01 -2.50000000e-02 0.0
8.25000000e-01 0.00000000e+00 0.0
8.50000000e-01 -5.00000000e-02 0.0
8.50000000e-01 -2.50000000e-02 0.0
8.50000000e-01 0.00000000e+00 0.0
8.75000000e-01 -5.00000000e-02 0.0
8.75000000e-01 -2.50000000e-02 0.0
8.75000000e-01 0.00000000e+00 0.0
9.00000000e-01 -5.00000000e-02 0.0
9.00000000e-01 -2.50000000e-02 0.0
9.00000000e-01 0.00000000e+00 0.0
9.25000000e-01 -5.00000000e-02 0.0
9.25000000e-01 -2.50000000e-02 0.0
9.25000000e-01 0.00000000e+00 0.0
9.50000000e-01 -5.00000000e-02 0.0
9.50000000e-01 -2.50000000e-02 0.0
9.50000000e-01 0.00000000e+00 0.0
9.75000000e-01 -5.00000000e-02 0.0
9.75000000e-01 -2.50000000e-02 0.0
9.75000000e-01 0.00000000e+00 0.0
1.00000000e+00 -5.00000000e-02 0.0
1.00000000e+00 -2.50000000e-02 0.0
1.00000000e+00 0.00000000e+00 0.0
1.00000000e+00 2.50000000e-02 0.0
1.00000000e+00 5.00000000e-02 0.0
1.00000000e+00 7.50000000e-02 0.0
1.00000000e+00 1.00000000e-01 0.0
1.00000000e+00 1.25000000e-01 0.0
1.00000000e+00 1.50000000e-01 0.0
1.00000000e+00 1.75000000e-01 0.0
1.00000000e+00 2.00000000e-01 0.0
1.00000000e+00 2.25000000e-01 0.0
1.00000000e+00 2.50000000e-01 0.0
1.00000000e+00 2.75000000e-01 0.0
1.00000000e+00 3.00000000e-01 0.0
1.00000000e+00 3.25000000e-01 0.0
1.00000000e+00 3.50000000e-01 0.0
1.00000000e+00 3.75000000e-01 0.0
1.00000000e+00 4.00000000e-01 0.0
1.00000000e+00 4.25000000e-01 0.0
1.00000000e+00 4.50000000e-01 0.0
1.00000000e+00 4.75000000e-01 0.0
1.00000000e+00 5.00000000e-01 0.0
1.00000000e+00 5.25000000e-01 0.0
1.00000000e+00 5.50000000e-01 0.0
1.00000000e+00 5.75000000e-01 0.0
1.02500000e+00 -5.00000000e-02 0.0
1.02500000e+00 -2.50000000e-02 0.0
1.02500000e+00 0.00000000e+00 0.0
1.02500000e+00 2.50000000e-02 0.0
1.02500000e+00 5.00000000e-02 0.0
1.02500000e+00 7.50000000e-02 0.0
1.02500000e+00 1.00000000e-01 0.0
1.02500000e+00 1.25000000e-01 0.0
1.02500000e+00 1.50000000e-01 0.0
1.02500000e+00 1.75000000e-01 0.0
1.02500000e+00 2.00000000e-01 0.0
1.02500000e+00 2.25000000e-01 0.0
1.02500000e+00 2.50000000e-01 0.0
1.02500000e+00 2.75000000e-01 0.0
1.02500000e+00 3.00000000e-01 0.0
1.02500000e+00 3.25000000e-01 0.0
1.02500000e+00 3.50000000e-01 0.0
1.02500000e+00 3.75000000e-01 0.0
1.02500000e+00 4.00000000e-01 0.0
1.02500000e+00 4.25000000e-01 0.0
1.02500000e+00 4.50000000e-01 0.0
1.02500000e+00 4.75000000e-01 0.0
1.02500000e+00 5.00000000e-01 0.0
1.02500000e+00 5.25000000e-01 0.0
1.02500000e+00 5.50000000e-01 0.0
1.02500000e+00 5.75000000e-01 0.0
1.05000000e+00 -5.00000000e-02 0.0
1.05000000e+00 -2.50000000e-02 0.0
1.05000000e+00 0.00000000e+00 0.0
1.05000000e+00 2.50000000e-02 0.0
1.05000000e+00 5.00000000e-02 0.0
1.05000000e+00 7.50000000e-02 0.0
1.05000000e+00 1.00000000e-01 0.0
1.05000000e+00 1.25000000e-01 0.0
1.05000000e+00 1.50000000e-01 0.0
1.05000000e+00 1.75000000e-01 0.0
1.05000000e+00 2.00000000e-01 0.0
1.05000000e+00 2.25000000e-01 0.0
1.05000000e+00 2.50000000e-01 0.0
1.05000000e+00 2.75000000e-01 0.0
1.05000000e+00 3.00000000e-01 0.0
1.05000000e+00 3.25000000e-01 0.0
1.05000000e+00 3.50000000e-01 0.0
1.05000000e+00 3.75000000e-01 0.0
1.05000000e+00 4.00000000e-01 0.0
1.05000000e+00 4.25000000e-01 0.0
1.05000000e+00 4.50000000e-01 0.0
1.05000000e+00 4.75000000e-01 0.0
1.05000000e+00 5.00000000e-01 0.0
1.05000000e+00 5.25000000e-01 0.0
1.05000000e+00 5.50000000e-01 0.0
1.05000000e+00 5.75000000e-01 0.0
CELLS 437 874
1 0
1 1
1 2
1 3
1 4
1 5
1 6
1 7
1 8
1 9
1 10
1 11
1 12
1 13
1 14
1 15
1 16
1 17
1 18
1 19
1 20
1 21
1 22
1 23
1 24
1 25
1 26
1 27
1 28
1 29
1 30
1 31
1 32
1 33
1 34
1 35
1 36
1 37
1 38
1 39
1 40
1 41
1 42
1 43
1 44
1 45
1 46
1 47
1 48
1 49
1 50
1 51
1 52
1 53
1 54
1 55
1 56
1 57
1 58
1 59
1 60
1 61
1 62
1 63
1 64
1 65
1 66
1 67
1 68
1 69
1 70
1 71
1 72
1 73
1 74
1 75
1 76
1 77
1 78
1 79
1 80
1 81
1 82
1 83
1 84
1 85
1 86
1 87
1 88
1 89
1 90
1 91
1 92
1 93
1 94
1 95
1 96
1 97
1 98
1 99
1 100
1 101
1 102
1 103
1 104
1 105
1 106
1 107
1 108
1 109
1 110
1 111
1 112
1 113
1 114
1 115
1 116
1 117
1 118
1 119
1 120
1 121
1 122
1 123
1 124
1 125
1 126
1 127
1 128
1 129
1 130
1 131
1 132
1 133
1 134
1 135
1 136
1 137
1 138
1 139
1 140
1 141
1 142
1 143
1 144
1 145
1 146
1 147
1 148
1 149
1 150
1 151
1 152
1 153
1 154
1 155
1 156
1 157
1 158
1 159
1 160
1 161
1 162
1 163
1 164
1 165
1 166
1 167
1 168
1 169
1 170
1 171
1 172
1 173
1 174
1 175
1 176
1 177
1 178
1 179
1 180
1 181
1 182
1 183
1 184
1 185
1 186
1 187
1 188
1 189
1 190
1 191
1 192
1 193
1 194
1 195
1 196
1 197
1 198
1 199
1 200
1 201
1 202
1 203
1 204
1 205
1 206
1 207
1 208
1 209
1 210
1 211
1 212
1 213
1 214
1 215
1 216
1 217
1 218
1 219
1 220
1 221
1 222
1 223
1 224
1 225
1 226
1 227
1 228
1 229
1 230
1 231
1 232
1 233
1 234
1 235
1 236
1 237
1 238
1 239
1 240
1 241
1 242
1 243
1 244
1 245
1 246
1 247
1 248
1 249
1 250
1 251
1 252
1 253
1 254
1 255
1 256
1 257
1 258
1 259
1 260
1 261
1 262
1 263
1 264
1 265
1 266
1 267
1 268
1 269
1 270
1 271
1 272
1 273
1 274
1 275
1 276
1 277
1 278
1 279
1 280
1 281
1 282
1 283
1 284
1 285
1 286
1 287
1 288
1 289
1 290
1 291
1 292
1 293
1 294
1 295
1 296
1 297
1 298
1 299
1 300
1 301
1 302
1 303
1 304
1 305
1 306
1 307
1 308
1 309
1 310
1 311
1 312
1 313
1 314
1 315
1 316
1 317
1 318
1 319
1 320
1 321
1 322
1 323
1 324
1 325
1 326
1 327
1 328
1 329
1 330
1 331
1 332
1 333
1 334
1 335
1 336
1 337
1 338
1 339
1 340
1 341
1 342
1 343
1 344
1 345
1 346
1 347
1 348
1 349
1 350
1 351
1 352
1 353
1 354
1 355
1 356
1 357
1 358
1 359
1 360
1 361
1 362
1 363
1 364
1 365
1 366
1 367
1 368
1 369
1 370
1 371
1 372
1 373
1 374
1 375
1 376
1 377
1 378
1 379
1 380
1 381
1 382
1 383
1 384
1 385
1 386
1 387
1 388
1 389
1 390
1 391
1 392
1 393
1 394
1 395
1 396
1 397
1 398
1 399
1 400
1 401
1 402
1 403
1 404
1 405
1 406
1 407
1 408
1 409
1 410
1 411
1 412
1 413
1 414
1 415
1 416
1 417
1 418
1 419
1 420
1 421
1 422
1 423
1 424
1 425
1 426
1 427
1 428
1 429
1 430
1 431
1 432
1 433
1 434
1 435
1 436
CELL_TYPES 437
1
1
1
1
1
1
1
1
1
1
1
1
1
1
1
1
1
1
1
1
1
1
1
1
1
1
1
1
1
1
1
1
1
1
1
1
1
1
1
1
1
1
1
1
1
1
1
1
1
1
1
1
1
1
1
1
1
1
1
1
1
1
1
1
1
1
1
1
1
1
1
1
1
1
1
1
1
1
1
1
1
1
1
1
1
1
1
1
1
1
1
1
1
1
1
1
1
1
1
1
1
1
1
1
1
1
1
1
1
1
1
1
1
1
1
1
1
1
1
1
1
1
1
1
1
1
1
1
1
1
1
1
1
1
1
1
1
1
1
1
1
1
1
1
1
1
1
1
1
1
1
1
1
1
1
1
1
1
1
1
1
1
1
1
1
1
1
1
1
1
1
1
1
1
1
1
1
1
1
1
1
1
1
1
1
1
1
1
1
1
1
1
1
1
1
1
1
1
1
1
1
1
1
1
1
1
1
1
1
1
1
1
1
1
1
1
1
1
1
1
1
1
1
1
1
1
1
1
1
1
1
1
1
1
1
1
1
1
1
1
1
1
1
1
1
1
1
1
1
1
1
1
1
1
1
1
1
1
1
1
1
1
1
1
1
1
1
1
1
1
1
1
1
1
1
1
1
1
1
1
1
1
1
1
1
1
1
1
1
1
1
1
1
1
1
1
1
1
1
1
1
1
1
1
1
1
1
1
1
1
1
1
1
1
1
1
1
1
1
1
1
1
1
1
1
1
1
1
1
1
1
1
1
1
1
1
1
1
1
1
1
1
1
1
1
1
1
1
1
1
1
1
1
1
1
1
1
1
1
1
1
1
1
1
1
1
1
1
1
1
1
1
1
1
1
1
1
1
1
1
1
1
1
1
1
1
1
1
1
1
1
1
1
1
1
1
1
1
1
1
1
1
1
1
1
1
1
1
1
1
1
1
1
1
1
1
1
1
1
1
1
1
1
1
1
1
1
1
1
1
1
1
1
1
1
1
1
POINT_DATA 437
SCALARS pressure double 1
LOOKUP_TABLE default
0.00000000e+00
0.00000000e+00
0.00000000e+00
0.00000000e+00
0.00000000e+00
0.00000000e+00
0.00000000e+00
0.00000000e+00
0.00000000e+00
0.00000000e+00
0.00000000e+00
0.00000000e+00
0.00000000e+00
0.00000000e+00
0.00000000e+00
0.00000000e+00
0.00000000e+00
0.00000000e+00
0.00000000e+00
0.00000000e+00
0.00000000e+00
0.00000000e+00
0.00000000e+00
0.00000000e+00
0.00000000e+00
0.00000000e+00
0.00000000e+00
0.00000000e+00
0.00000000e+00
0.00000000e+00
0.00000000e+00
0.00000000e+00
0.00000000e+00
0.00000000e+00
0.00000000e+00
0.00000000e+00
0.00000000e+00
0.00000000e+00
0.00000000e+00
0.00000000e+00
0.00000000e+00
0.00000000e+00
0.00000000e+00
0.00000000e+00
0.00000000e+00
0.00000000e+00
0.00000000e+00
0.00000000e+00
0.00000000e+00
0.00000000e+00
0.00000000e+00
0.00000000e+00
0.00000000e+00
0.00000000e+00
0.00000000e+00
0.00000000e+00
0.00000000e+00
0.00000000e+00
0.00000000e+00
0.00000000e+00
0.00000000e+00
0.00000000e+00
0.00000000e+00
0.00000000e+00
0.00000000e+00
0.00000000e+00
0.00000000e+00
0.00000000e+00
0.00000000e+00
0.00000000e+00
0.00000000e+00
0.00000000e+00
0.00000000e+00
0.00000000e+00
0.00000000e+00
0.00000000e+00
0.00000000e+00
0.00000000e+00
0.00000000e+00
0.00000000e+00
0.00000000e+00
0.00000000e+00
0.00000000e+00
0.00000000e+00
0.00000000e+00
4.79937114e+03
0.00000000e+00
0.00000000e+00
0.00000000e+00
0.00000000e+00
0.00000000e+00
0.00000000e+00
0.00000000e+00
0.00000000e+00
0.00000000e+00
0.00000000e+00
6.62861895e+03
0.00000000e+00
5.07332910e+03
0.00000000e+00
0.00000000e+00
0.00000000e+00
0.00000000e+00
0.00000000e+00
0.00000000e+00
0.00000000e+00
0.00000000e+00
0.00000000e+00
0.00000000e+00
0.00000000e+00
0.00000000e+00
0.00000000e+00
0.00000000e+00
0.00000000e+00
0.00000000e+00
0.00000000e+00
0.00000000e+00
0.00000000e+00
0.00000000e+00
3.00984052e+03
0.00000000e+00
0.00000000e+00
0.00000000e+00
0.00000000e+00
0.00000000e+00
0.00000000e+00
0.00000000e+00
1.02897791e+04
0.00000000e+00
0.00000000e+00
7.68254796e+03
0.00000000e+00
0.00000000e+00
0.00000000e+00
4.37720236e+03
0.00000000e+00
0.00000000e+00
3.28530864e+03
0.00000000e+00
0.00000000e+00
0.00000000e+00
2.68128176e+03
0.00000000e+00
0.00000000e+00
0.00000000e+00
0.00000000e+00
0.00000000e+00
0.00000000e+00
0.00000000e+00
0.00000000e+00
0.00000000e+00
7.67294316e+03
0.00000000e+00
0.00000000e+00
0.00000000e+00
0.00000000e+00
0.00000000e+00
0.00000000e+00
0.00000000e+00
0.00000000e+00
0.00000000e+00
0.00000000e+00
0.00000000e+00
0.00000000e+00
0.00000000e+00
0.00000000e+00
0.00000000e+00
0.00000000e+00
0.00000000e+00
0.00000000e+00
0.00000000e+00
0.00000000e+00
0.00000000e+00
0.00000000e+00
0.00000000e+00
0.00000000e+00
0.00000000e+00
0.00000000e+00
0.00000000e+00
0.00000000e+00
0.00000000e+00
1.52096787e+04
0.00000000e+00
0.00000000e+00
0.00000000e+00
0.00000000e+00
0.00000000e+00
4.41374115e+03
0.00000000e+00
0.00000000e+00
0.00000000e+00
9.57963488e+03
0.00000000e+00
6.12045208e+03
0.00000000e+00
0.00000000e+00
0.00000000e+00
4.71713050e+03
0.00000000e+00
0.00000000e+00
0.00000000e+00
1.65781655e+03
0.00000000e+00
0.00000000e+00
0.00000000e+00
0.00000000e+00
0.00000000e+00
0.00000000e+00
0.00000000e+00
0.00000000e+00
0.00000000e+00
0.00000000e+00
0.00000000e+00
0.00000000e+00
0.00000000e+00
0.00000000e+00
0.00000000e+00
0.00000000e+00
0.00000000e+00
0.00000000e+00
0.00000000e+00
0.00000000e+00
0.00000000e+00
0.00000000e+00
0.00000000e+00
0.00000000e+00
0.00000000e+00
0.00000000e+00
0.00000000e+00
0.00000000e+00
0.00000000e+00
0.00000000e+00
0.00000000e+00
0.00000000e+00
3.54085792e+03
0.00000000e+00
0.00000000e+00
0.00000000e+00
0.00000000e+00
0.00000000e+00
0.00000000e+00
0.00000000e+00
0.00000000e+00
0.00000000e+00
0.00000000e+00
0.00000000e+00
0.00000000e+00
8.03194614e+03
0.00000000e+00
0.00000000e+00
0.00000000e+00
0.00000000e+00
0.00000000e+00
0.00000000e+00
0.00000000e+00
0.00000000e+00
0.00000000e+00
0.00000000e+00
0.00000000e+00
0.00000000e+00
0.00000000e+00
1.14027853e+04
0.00000000e+00
0.00000000e+00
0.00000000e+00
0.00000000e+00
0.00000000e+00
0.00000000e+00
0.00000000e+00
0.00000000e+00
0.00000000e+00
0.00000000e+00
0.00000000e+00
0.00000000e+00
0.00000000e+00
0.00000000e+00
0.00000000e+00
0.00000000e+00
0.00000000e+00
0.00000000e+00
0.00000000e+00
0.00000000e+00
0.00000000e+00
0.00000000e+00
0.00000000e+00
0.00000000e+00
0.00000000e+00
0.00000000e+00
0.00000000e+00
0.00000000e+00
0.00000000e+00
0.00000000e+00
0.00000000e+00
0.00000000e+00
0.00000000e+00
0.00000000e+00
0.00000000e+00
0.00000000e+00
0.00000000e+00
0.00000000e+00
0.00000000e+00
0.00000000e+00
0.00000000e+00
0.00000000e+00
0.00000000e+00
0.00000000e+00
0.00000000e+00
0.00000000e+00
0.00000000e+00
0.00000000e+00
0.00000000e+00
0.00000000e+00
0.00000000e+00
0.00000000e+00
0.00000000e+00
0.00000000e+00
0.00000000e+00
0.00000000e+00
0.00000000e+00
0.00000000e+00
0.00000000e+00
0.00000000e+00
0.00000000e+00
0.00000000e+00
0.00000000e+00
0.00000000e+00
0.00000000e+00
0.00000000e+00
0.00000000e+00
0.00000000e+00
0.00000000e+00
0.00000000e+00
0.00000000e+00
0.00000000e+00
0.00000000e+00
0.00000000e+00
0.00000000e+00
0.00000000e+00
0.00000000e+00
0.00000000e+00
0.00000000e+00
0.00000000e+00
0.00000000e+00
0.00000000e+00
0.00000000e+00
0.00000000e+00
0.00000000e+00
0.00000000e+00
0.00000000e+00
0.00000000e+00
0.00000000e+00
0.00000000e+00
0.00000000e+00
0.00000000e+00
0.00000000e+00
0.00000000e+00
0.00000000e+00
0.00000000e+00
0.00000000e+00
0.00000000e+00
0.00000000e+00
0.00000000e+00
0.00000000e+00
0.00000000e+00
0.00000000e+00
0.00000000e+00
0.00000000e+00
0.00000000e+00
0.00000000e+00
0.00000000e+00
0.00000000e+00
0.00000000e+00
0.00000000e+00
0.00000000e+00
0.00000000e+00
0.00000000e+00
0.00000000e+00
0.00000000e+00
0.00000000e+00
0.00000000e+00
0.00000000e+00
0.00000000e+00
0.00000000e+00
0.00000000e+00
0.00000000e+00
0.00000000e+00
0.00000000e+00
0.00000000e+00
0.00000000e+00
0.00000000e+00
0.00000000e+00
0.00000000e+00
0.00000000e+00
0.00000000e+00
0.00000000e+00
0.00000000e+00
0.00000000e+00
0.00000000e+00
0.00000000e+00
0.00000000e+00
0.00000000e+00
0.00000000e+00
0.00000000e+00
0.00000000e+00
0.00000000e+00
0.00000000e+00
0.00000000e+00
0.00000000e+00
0.00000000e+00
0.00000000e+00
0.00000000e+00
0.00000000e+00
0.00000000e+00
0.00000000e+00
0.00000000e+00
0.00000000e+00
0.00000000e+00
0.00000000e+00
0.00000000e+00
0.00000000e+00
0.00000000e+00
0.00000000e+00
0.00000000e+00
0.00000000e+00
0.00000000e+00
0.00000000e+00
0.00000000e+00
0.00000000e+00
0.00000000e+00
0.00000000e+00
0.00000000e+00
0.00000000e+00
0.00000000e+00
0.00000000e+00
0.00000000e+00
0.00000000e+00
0.00000000e+00
SCALARS type int 1
LOOKUP_TABLE default
1
1
1
1
1
1
1
1
1
1
1
1
1
1
1
1
1
1
1
1
1
1
1
1
1
1
1
1
1
1
1
1
1
1
1
1
1
1
1
1
1
1
1
1
1
1
1
1
1
1
1
1
1
1
1
1
1
1
1
1
1
1
1
1
1
1
1
1
1
1
1
1
1
1
1
1
1
1
1
1
1
0
0
0
0
0
0
0
0
0
0
0
0
0
0
0
0
0
0
0
1
1
1
0
0
0
0
0
0
0
0
0
0
0
0
0
0
0
0
0
0
0
1
1
1
0
0
0
0
0
0
0
0
0
0
0
0
0
0
0
0
0
0
0
1
1
1
0
0
0
0
0
0
0
0
0
0
0
0
0
0
0
0
0
0
0
1
1
1
0
0
0
0
0
0
0
0
0
0
0
0
0
0
0
0
0
0
0
1
1
1
0
0
0
0
0
0
0
0
0
0
0
0
0
0
0
0
0
0
1
1
1
0
0
0
0
0
0
0
0
0
0
0
0
0
0
0
0
0
1
1
1
0
0
0
0
0
0
0
0
0
0
0
0
0
0
0
0
0
0
1
1
1
0
0
0
0
0
0
0
0
0
0
0
0
0
0
0
0
1
1
1
1
1
1
1
1
1
1
1
1
1
1
1
1
1
1
1
1
1
1
1
1
1
1
1
1
1
1
1
1
1
1
1
1
1
1
1
1
1
1
1
1
1
1
1
1
1
1
1
1
1
1
1
1
1
1
1
1
1
1
1
1
1
1
1
1
1
1
1
1
1
1
1
1
1
1
1
1
1
1
1
1
1
1
1
1
1
1
1
1
1
1
1
1
1
1
1
1
1
1
1
1
1
1
1
1
1
1
1
1
1
1
1
1
1
1
1
1
1
1
1
1
1
1
1
1
1
1
1
1
1
1
1
1
1
1
1
1
1
1
1
1
1
1
1
1
1
1
1
1
1
1
1
1
1
1
1
1
1
1
1
1
1
1
1
1
VECTORS velocity double
0.00000000e+00 0.00000000e+00 0.0
0.00000000e+00 0.00000000e+00 0.0
0.00000000e+00 0.00000000e+00 0.0
0.00000000e+00 0.00000000e+00 0.0
0.00000000e+00 0.00000000e+00 0.0
0.00000000e+00 0.00000000e+00 0.0
0.00000000e+00 0.00000000e+00 0.0
0.00000000e+00 0.00000000e+00 0.0
0.00000000e+00 0.00000000e+00 0.0
0.00000000e+00 0.00000000e+00 0.0
0.00000000e+00 0.00000000e+00 0.0
0.00000000e+00 0.00000000e+00 0.0
0.00000000e+00 0.00000000e+00 0.0
0.00000000e+00 0.00000000e+00 0.0
0.00000000e+00 0.00000000e+00 0.0
0.00000000e+00 0.00000000e+00 0.0
0.00000000e+00 0.00000000e+00 0.0
0.00000000e+00 0.00000000e+00 0.0
0.00000000e+00 0.00000000e+00 0.0
0.00000000e+00 0.00000000e+00 0.0
0.00000000e+00 0.00000000e+00 0.0
0.00000000e+00 0.00000000e+00 0.0
0.00000000e+00 0.00000000e+00 0.0
0.00000000e+00 0.00000000e+00 0.0
0.00000000e+00 0.00000000e+00 0.0
0.00000000e+00 0.00000000e+00 0.0
0.00000000e+00 0.00000000e+00 0.0
0.00000000e+00 0.00000000e+00 0.0
0.00000000e+00 0.00000000e+00 0.0
0.00000000e+00 0.00000000e+00 0.0
0.00000000e+00 0.00000000e+00 0.0
0.00000000e+00 0.00000000e+00 0.0
0.00000000e+00 0.00000000e+00 0.0
0.00000000e+00 0.00000000e+00 0.0
0.00000000e+00 0.00000000e+00 0.0
0.00000000e+00 0.00000000e+00 0.0
0.00000000e+00 0.00000000e+00 0.0
0.00000000e+00 0.00000000e+00 0.0
0.00000000e+00 0.00000000e+00 0.0
0.00000000e+00 0.00000000e+00 0.0
0.00000000e+00 0.00000000e+00 0.0
0.00000000e+00 0.00000000e+00 0.0
0.00000000e+00 0.00000000e+00 0.0
0.00000000e+00 0.00000000e+00 0.0
0.00000000e+00 0.00000000e+00 0.0
0.00000000e+00 0.00000000e+00 0.0
0.00000000e+00 0.00000000e+00 0.0
0.00000000e+00 0.00000000e+00 0.0
0.00000000e+00 0.00000000e+00 0.0
0.00000000e+00 0.00000000e+00 0.0
0.00000000e+00 0.00000000e+00 0.0
0.00000000e+00 0.00000000e+00 0.0
0.00000000e+00 0.00000000e+00 0.0
0.00000000e+00 0.00000000e+00 0.0
0.00000000e+00 0.00000000e+00 0.0
0.00000000e+00 0.00000000e+00 0.0
0.00000000e+00 0.00000000e+00 0.0
0.00000000e+00 0.00000000e+00 0.0
0.00000000e+00 0.00000000e+00 0.0
0.00000000e+00 0.00000000e+00 0.0
0.00000000e+00 0.00000000e+00 0.0
0.00000000e+00 0.00000000e+00 0.0
0.00000000e+00 0.00000000e+00 0.0
0.00000000e+00 0.00000000e+00 0.0
0.00000000e+00 0.00000000e+00 0.0
0.00000000e+00 0.00000000e+00 0.0
0.00000000e+00 0.00000000e+00 0.0
0.00000000e+00 0.00000000e+00 0.0
0.00000000e+00 0.00000000e+00 0.0
0.00000000e+00 0.00000000e+00 0.0
0.00000000e+00 0.00000000e+00 0.0
0.00000000e+00 0.00000000e+00 0.0
0.00000000e+00 0.00000000e+00 0.0
0.00000000e+00 0.00000000e+00 0.0
0.00000000e+00 0.00000000e+00 0.0
0.00000000e+00 0.00000000e+00 0.0
0.00000000e+00 0.00000000e+00 0.0
0.00000000e+00 0.00000000e+00 0.0
0.00000000e+00 0.00000000e+00 0.0
0.00000000e+00 0.00000000e+00 0.0
0.00000000e+00 0.00000000e+00 0.0
5.68686793e-01 1.37808183e-01 0.0
-1.42276244e-01 -3.65104501e-01 0.0
-5.06457394e-02 -8.30614956e-01 0.0
-1.80086060e+00 3.59158265e-01 0.0
2.82938675e-01 2.46283797e-01 0.0
2.83063348e-01 -1.15155480e-01 0.0
5.06018510e-01 -1.85037085e-01 0.0
-2.80582194e-01 5.19675533e-01 0.0
-1.93397605e-01 -3.82292151e-01 0.0
-1.10132603e+00 2.26454943e-01 0.0
-4.42892992e-01 -6.38609269e-01 0.0
-7.49450396e-01 4.96557095e-02 0.0
-5.79511710e-01 -1.86211672e-01 0.0
4.95969592e-01 -3.74276047e-01 0.0
3.90436243e-01 8.79580559e-01 0.0
-4.46234227e-02 3.94660928e-01 0.0
5.44412403e-01 -4.65002311e-01 0.0
3.46711002e-01 2.24900889e-01 0.0
3.29842220e-02 -3.28115522e-01 0.0
0.00000000e+00 0.00000000e+00 0.0
0.00000000e+00 0.00000000e+00 0.0
0.00000000e+00 0.00000000e+00 0.0
-8.97441862e-01 -1.24888677e+00 0.0
-1.07520334e+00 1.04325482e+00 0.0
-3.34041288e-01 -8.88488051e-02 0.0
-2.44002155e-01 -1.61689735e-01 0.0
3.53026914e-01 -4.63910544e-01 0.0
-3.81733710e-01 2.45509586e-02 0.0
-5.05243524e-01 -6.59270139e-01 0.0
-4.26688405e-01 1.43125150e-01 0.0
-1.92309295e-01 4.04450131e-01 0.0
-7.71048721e-01 4.93602739e-01 0.0
-6.49243942e-01 1.73630697e-01 0.0