# vtk DataFile Version 3.0
MPS 3D Simulation Step 6500
ASCII
DATASET UNSTRUCTURED_GRID
POINTS 20213 double
-1.08628340e-03 3.81960110e-04 -8.46741568e-04
-1.00605987e-03 2.26440642e-04 -8.57502476e-04
-8.90975043e-04 3.12198833e-04 -1.02836567e-03
-8.50161646e-04 3.62013089e-04 -1.08537190e-03
-7.80541022e-04 1.87000666e-04 -1.05059583e-03
-7.98837140e-04 4.07484459e-04 -1.14042081e-03
-6.14463614e-04 2.76916683e-04 -1.21261296e-03
-4.73575919e-04 2.50205645e-04 -1.26938277e-03
-4.29340041e-04 1.11419278e-04 -1.17555719e-03
-3.62561757e-04 8.10346652e-04 -1.13308863e-03
-1.72399165e-04 8.39068032e-04 -1.26480534e-03
-2.56825261e-04 7.83465052e-04 -1.26194058e-03
-8.14786263e-05 6.07052227e-04 -1.22812529e-03
-6.98216704e-05 2.00892411e-04 -1.32157665e-03
1.36223229e-05 1.61739345e-04 -1.29753404e-03
4.85254994e-04 1.35202235e-04 -1.19543156e-03
2.83205340e-04 6.59502487e-04 -8.79897146e-04
5.46202647e-04 1.82240169e-04 -1.20115965e-03
5.92564760e-04 5.21217107e-04 -1.02900570e-03
8.03229301e-04 6.63470751e-04 -9.05969521e-04
1.02901455e-03 3.96429259e-04 -7.82411060e-04
-1.04612808e-03 3.01822704e-04 -8.55386090e-04
-9.82006346e-04 2.88104061e-04 -9.22283204e-04
-9.53503359e-04 3.47175659e-04 -9.81888774e-04
-8.65569146e-04 4.49935994e-04 -1.09402946e-03
-8.07665363e-04 5.91180902e-04 -1.15776101e-03
-9.11535625e-04 5.11310040e-04 -1.06734994e-03
-7.48488047e-04 4.64684881e-04 -1.18812221e-03
-5.38753034e-04 3.93402651e-04 -1.28381440e-03
-3.55531952e-04 2.32445470e-04 -1.30387691e-03
-3.63266273e-04 1.42647287e-04 -1.25137531e-03
-7.63755180e-05 2.74879465e-04 -1.35302846e-03
9.26551477e-05 1.99162247e-04 -1.31303014e-03
1.67511658e-04 3.67303075e-04 -1.36314558e-03
2.43895143e-04 3.22074024e-04 -1.34399074e-03
2.56928334e-04 2.47972032e-04 -1.31867001e-03
3.92053284e-04 1.25401741e-04 -1.22270158e-03
4.22354427e-04 2.56605231e-04 -1.28437202e-03
5.03202979e-04 5.66984991e-04 -1.19714205e-03
4.39408787e-04 1.84486538e-04 -1.24870743e-03
6.15744576e-04 2.01587380e-04 -1.17713585e-03
8.38504308e-04 1.25500164e-04 -9.54955403e-04
-1.02528436e-03 3.59089418e-04 -9.11558693e-04
-9.94123356e-04 4.14377476e-04 -9.63268557e-04
-1.00398831e-03 6.18376979e-04 -9.82278773e-04
-7.80476164e-04 3.24661088e-04 -1.12658189e-03
-9.11436877e-04 4.00979266e-04 -1.03962670e-03
-8.14825344e-04 4.95427135e-04 -1.14675757e-03
-5.44933131e-04 3.02546854e-04 -1.25788784e-03
-6.67753507e-04 3.33860589e-04 -1.20852583e-03
-3.93946152e-04 3.75172428e-04 -1.33166368e-03
-2.83124141e-04 2.52469189e-04 -1.32890451e-03
-1.01113102e-04 4.29695470e-04 -1.39243331e-03
7.36304623e-06 2.36749449e-04 -1.33219750e-03
1.57381469e-04 4.49580883e-04 -1.38214306e-03
3.24691488e-04 3.30628281e-04 -1.33230665e-03
2.68764619e-04 1.79378333e-04 -1.28606111e-03
4.01794226e-04 4.01964865e-04 -1.33270091e-03
5.01096781e-04 3.08303936e-04 -1.27591699e-03
4.12695263e-04 3.27767785e-04 -1.31051163e-03
6.62553847e-04 2.60594620e-04 -1.17512544e-03
7.51695727e-04 1.86238727e-04 -1.07218574e-03
7.51978851e-04 1.21561193e-04 -1.01544893e-03
-1.11644540e-03 4.63450452e-04 -8.28931364e-04
-1.02306428e-03 4.98774079e-04 -9.51543611e-04
-9.79756331e-04 5.43071515e-04 -1.00488483e-03
-8.62091617e-04 5.55647777e-04 -1.11416240e-03
-7.52996661e-04 5.44798465e-04 -1.19467795e-03
-6.78045417e-04 4.26949408e-04 -1.22537278e-03
-6.05910423e-04 3.62453767e-04 -1.24940304e-03
-3.26123230e-04 3.21581335e-04 -1.33819603e-03
-2.51579340e-04 3.54781870e-04 -1.36661367e-03
-2.96316022e-04 1.68760970e-04 -1.28444901e-03
-3.35565489e-05 4.74605547e-04 -1.39603364e-03
-1.46196462e-04 1.62081511e-04 -1.29833316e-03
6.61633927e-07 4.00694522e-04 -1.38216969e-03
1.36890482e-06 3.15757769e-04 -1.36201503e-03
2.44825359e-04 4.03523233e-04 -1.36374888e-03
3.39711072e-04 2.56425737e-04 -1.30582336e-03
4.61975083e-04 4.65236798e-04 -1.32244387e-03
7.16854786e-04 3.25333608e-04 -1.16617053e-03
7.34698663e-04 2.53054676e-04 -1.12172834e-03
8.04325572e-04 2.47359257e-04 -1.06807098e-03
8.74750591e-04 2.43166712e-04 -1.00370806e-03
-1.14773022e-03 5.38716217e-04 -8.05845960e-04
-9.56579184e-04 6.69139816e-04 -1.02682336e-03
-9.56331085e-04 4.63582005e-04 -1.01502319e-03
-7.55366610e-04 6.43535466e-04 -1.19019759e-03
-6.12213835e-04 5.27463831e-04 -1.27071464e-03
-6.82750692e-04 5.11035112e-04 -1.23397488e-03
-3.15242145e-04 4.08688216e-04 -1.36045206e-03
-2.40270003e-04 4.49028931e-04 -1.38365166e-03
-1.78653887e-04 3.98132268e-04 -1.38694118e-03
-9.06823448e-05 5.35687424e-04 -1.40343903e-03
-1.68219685e-05 5.70444436e-04 -1.40712524e-03
-1.48361391e-04 3.27108267e-04 -1.37284497e-03
4.26793653e-05 5.05749704e-04 -1.39863692e-03
2.76350159e-04 5.72619588e-04 -1.38027767e-03
8.06227886e-05 4.35275159e-04 -1.38454875e-03
3.25259259e-04 4.11769579e-04 -1.35240058e-03
3.80508025e-04 4.85149099e-04 -1.34992294e-03
5.78644763e-04 2.69145061e-04 -1.22214629e-03
7.88230540e-04 3.19351272e-04 -1.11322928e-03
8.57887569e-04 3.13183130e-04 -1.05103817e-03
8.40581135e-04 3.86594276e-04 -1.09127013e-03
-1.16202384e-03 6.39396553e-04 -7.92619673e-04
-1.04966509e-03 5.74457082e-04 -9.30450152e-04
-8.99557618e-04 7.11949644e-04 -1.07092329e-03
-9.35967578e-04 5.91165689e-04 -1.05101182e-03
-6.92600451e-04 5.91667887e-04 -1.23144097e-03
-5.33922699e-04 4.78885754e-04 -1.29898695e-03
-4.64703685e-04 4.23166247e-04 -1.31437385e-03
-3.88632294e-04 4.58576445e-04 -1.34648900e-03
-1.60660080e-04 4.89398762e-04 -1.39559600e-03
-2.39951962e-04 5.36372653e-04 -1.38876875e-03
-1.68696696e-04 5.79177960e-04 -1.39988289e-03
-7.40265365e-05 3.54093622e-04 -1.37790291e-03
2.24741183e-04 4.87596578e-04 -1.38162295e-03
3.02091197e-04 4.92076358e-04 -1.36914094e-03
8.49606341e-05 2.74365535e-04 -1.34167034e-03
2.91469389e-04 7.23815775e-04 -1.36885212e-03
3.55697499e-04 5.66643920e-04 -1.36200080e-03
4.80549263e-04 3.83519851e-04 -1.30237873e-03
6.43900151e-04 3.33354647e-04 -1.21435439e-03
7.71069738e-04 3.92829003e-04 -1.14680221e-03
9.46692317e-04 4.56045315e-04 -1.01359845e-03
-1.11560149e-03 6.00537896e-04 -8.53870647e-04
-1.08879117e-03 5.24264686e-04 -8.80041690e-04
-9.68724790e-04 7.45234474e-04 -1.00101786e-03
-8.29809893e-04 6.70701173e-04 -1.13623428e-03
-6.86422125e-04 6.74563820e-04 -1.22786653e-03
-5.40210167e-04 5.64877261e-04 -1.30266492e-03
-4.64624452e-04 5.13458067e-04 -1.32848247e-03
-3.15693355e-04 4.97937954e-04 -1.37215340e-03
-3.90366211e-04 5.44999422e-04 -1.35393277e-03
-3.16502418e-04 5.84404657e-04 -1.37376656e-03
-9.59209590e-05 6.22558505e-04 -1.40559575e-03
6.27363645e-05 5.96682074e-04 -1.40563643e-03
1.22103667e-04 5.30596533e-04 -1.39552982e-03
1.95457471e-04 5.63342098e-04 -1.39291891e-03
2.32065783e-04 6.44670104e-04 -1.38882855e-03
5.24650994e-04 5.10868923e-04 -1.30152481e-03
5.03489799e-04 5.94132658e-04 -1.31291367e-03
5.69869574e-04 3.45210074e-04 -1.25631410e-03
5.46692108e-04 4.23470509e-04 -1.28260173e-03
8.80003069e-04 4.61666172e-04 -1.07465107e-03
8.57909490e-04 5.40840558e-04 -1.10391196e-03
-1.14428390e-03 7.53333224e-04 -7.94689990e-04
-1.07252181e-03 6.49986127e-04 -9.05156213e-04
-1.02288486e-03 6.95654709e-04 -9.54120405e-04
-8.87389885e-04 6.34101482e-04 -1.09464456e-03
-6.19271387e-04 6.09756199e-04 -1.26731850e-03
-4.64354979e-04 5.98702380e-04 -1.33272407e-03
-4.77879652e-04 6.77418080e-04 -1.32585562e-03
-3.91419759e-04 6.32110078e-04 -1.35505320e-03
-3.17244925e-04 6.70773465e-04 -1.37176604e-03
-2.43301465e-04 6.27661711e-04 -1.38657079e-03
-1.65679378e-04 6.71679260e-04 -1.39725403e-03
-1.58715846e-05 6.54057443e-04 -1.41067826e-03
5.96678922e-05 6.80721604e-04 -1.40764897e-03
1.41918485e-04 6.26140545e-04 -1.40127873e-03
2.07905680e-04 7.20893552e-04 -1.38809038e-03
4.38818578e-04 5.49880323e-04 -1.33581423e-03
4.03202107e-04 6.33508454e-04 -1.34843888e-03
5.80951854e-04 5.81356623e-04 -1.27865836e-03
6.23494493e-04 4.12568215e-04 -1.24416366e-03
8.12511354e-04 4.63734107e-04 -1.13015527e-03
8.36514317e-04 6.23574836e-04 -1.12238197e-03
-1.11898626e-03 6.91931595e-04 -8.43135782e-04
-1.06916307e-03 7.39744657e-04 -8.92835188e-04
-1.01236168e-03 7.84842358e-04 -9.42402392e-04
-7.08918081e-04 7.49895662e-04 -1.20587807e-03
-6.14878561e-04 6.95066371e-04 -1.26287276e-03
-5.47474287e-04 6.48508403e-04 -1.29735815e-03
-4.75574001e-04 7.56802237e-04 -1.31709773e-03
-4.03089641e-04 7.10229803e-04 -1.34702761e-03
-3.32028920e-04 7.51764101e-04 -1.35924860e-03
-2.43576705e-04 7.15139718e-04 -1.38210018e-03
-1.68851803e-04 7.58464287e-04 -1.38819846e-03
-8.92047212e-05 7.10114738e-04 -1.40386495e-03
-1.18332180e-05 7.41280195e-04 -1.40341611e-03
6.51015192e-05 7.66172288e-04 -1.39824713e-03
1.34255377e-04 7.05459474e-04 -1.40118847e-03
3.76060362e-04 7.19316700e-04 -1.34637211e-03
4.04751860e-04 8.05456254e-04 -1.32125642e-03
4.68351804e-04 6.65985156e-04 -1.32368631e-03
5.98896175e-04 4.93042302e-04 -1.26666203e-03
6.99562901e-04 3.99768231e-04 -1.19811133e-03
7.92604101e-04 5.43263698e-04 -1.15460979e-03
-1.09968691e-03 7.98991416e-04 -8.41589872e-04
-9.90324654e-04 8.79249900e-04 -9.29630375e-04
-9.06564742e-04 7.89178497e-04 -1.04621943e-03
-7.74952230e-04 7.23280151e-04 -1.16830117e-03
-7.14687010e-04 8.29823683e-04 -1.18544001e-03
-5.48896561e-04 7.40803143e-04 -1.28916987e-03
-5.74103198e-04 8.13294318e-04 -1.26600955e-03
-4.07351092e-04 7.97626770e-04 -1.33161848e-03
-3.32295268e-04 8.37060182e-04 -1.34183422e-03
-2.59038425e-04 7.94551868e-04 -1.36708998e-03
-1.85390891e-04 8.36659322e-04 -1.36965473e-03
-9.22702683e-05 7.90705441e-04 -1.38938562e-03
-1.58866844e-05 8.25187395e-04 -1.38544925e-03
6.36234972e-05 8.45085255e-04 -1.37810497e-03
1.47303825e-04 7.90938092e-04 -1.38229619e-03
3.23424257e-04 7.97187908e-04 -1.34422414e-03
4.85077380e-04 8.17607186e-04 -1.28970453e-03
4.56024453e-04 7.42403176e-04 -1.31976429e-03
6.53718660e-04 5.69825283e-04 -1.24285698e-03
7.43836394e-04 4.69841589e-04 -1.18150470e-03
8.16120975e-04 7.08501090e-04 -1.12781902e-03
-1.04663819e-03 8.34587986e-04 -8.88181583e-04
-9.72629504e-04 9.65889874e-04 -9.06625210e-04
[...]
POINT_DATA 20213
SCALARS pressure double 1
LOOKUP_TABLE default
0.00000000e+00
0.00000000e+00
0.00000000e+00
9.92002068e+02
5.61446624e+02
1.24550897e+03
1.19637946e+03
8.01437673e+02
6.45714300e+02
8.01301821e+02
8.64280727e+02
8.05406670e+02
9.39820348e+02
5.58656263e+02
0.00000000e+00
0.00000000e+00
1.54079370e+03
0.00000000e+00
1.02383956e+03
1.32222546e+03
1.47237596e+03
0.00000000e+00
0.00000000e+00
0.00000000e+00
9.94980435e+02
9.40899871e+02
0.00000000e+00
1.18029926e+03
1.02120797e+03
8.71909310e+02
6.71997240e+02
0.00000000e+00
0.00000000e+00
6.78578191e+02
7.05530633e+02
0.00000000e+00
0.00000000e+00
0.00000000e+00
8.89638100e+02
0.00000000e+00
0.00000000e+00
0.00000000e+00
0.00000000e+00
0.00000000e+00
0.00000000e+00
1.24418139e+03
7.29561918e+02
1.16667651e+03
9.86703287e+02
1.23726251e+03
0.00000000e+00
8.57309594e+02
0.00000000e+00
5.33532521e+02
6.31727545e+02
7.63079670e+02
0.00000000e+00
7.35487508e+02
0.00000000e+00
5.61158476e+02
0.00000000e+00
0.00000000e+00
3.32941218e+02
0.00000000e+00
0.00000000e+00
6.10576524e+02
8.66424417e+02
1.10134337e+03
1.19372418e+03
1.10778102e+03
0.00000000e+00
0.00000000e+00
0.00000000e+00
7.00482708e+02
0.00000000e+00
5.78551670e+02
0.00000000e+00
8.07223889e+02
0.00000000e+00
0.00000000e+00
0.00000000e+00
4.40058318e+02
5.30138092e+02
0.00000000e+00
0.00000000e+00
0.00000000e+00
0.00000000e+00
7.87267570e+02
0.00000000e+00
0.00000000e+00
0.00000000e+00
0.00000000e+00
0.00000000e+00
6.23696867e+02
0.00000000e+00
0.00000000e+00
6.33479853e+02
9.42445098e+02
0.00000000e+00
8.67924162e+02
1.01141257e+03
0.00000000e+00
0.00000000e+00
7.22642165e+02
0.00000000e+00
0.00000000e+00
3.80601311e+02
5.95812033e+02
5.84564335e+02
0.00000000e+00
0.00000000e+00
0.00000000e+00
0.00000000e+00
0.00000000e+00
0.00000000e+00
0.00000000e+00
6.12748410e+02
0.00000000e+00
9.39223163e+02
0.00000000e+00
0.00000000e+00
9.06813638e+02
0.00000000e+00
0.00000000e+00
6.14025561e+02
1.26115305e+03
0.00000000e+00
0.00000000e+00
0.00000000e+00
0.00000000e+00
0.00000000e+00
0.00000000e+00
0.00000000e+00
0.00000000e+00
0.00000000e+00
0.00000000e+00
6.47098185e+02
6.97686019e+02
0.00000000e+00
0.00000000e+00
0.00000000e+00
6.79748425e+02
9.12204867e+02
0.00000000e+00
0.00000000e+00
1.03724900e+03
1.09994550e+03
9.21194033e+02
0.00000000e+00
0.00000000e+00
0.00000000e+00
0.00000000e+00
0.00000000e+00
8.13792893e+02
7.81208913e+02
6.92691487e+02
5.99759727e+02
0.00000000e+00
0.00000000e+00
0.00000000e+00
6.46800182e+02
0.00000000e+00
9.59885878e+02
0.00000000e+00
6.63748762e+02
0.00000000e+00
8.45709354e+02
0.00000000e+00
0.00000000e+00
0.00000000e+00
0.00000000e+00
0.00000000e+00
0.00000000e+00
6.59816913e+02
5.39997453e+02
7.51277774e+02
0.00000000e+00
0.00000000e+00
7.70912418e+02
0.00000000e+00
0.00000000e+00
0.00000000e+00
6.13492311e+02
0.00000000e+00
9.29957407e+02
8.34002504e+02
0.00000000e+00
0.00000000e+00
8.65887359e+02
0.00000000e+00
0.00000000e+00
0.00000000e+00
0.00000000e+00
7.47178413e+02
0.00000000e+00
6.14691841e+02
0.00000000e+00
0.00000000e+00
7.39989516e+02
9.43051662e+02
8.54206875e+02
0.00000000e+00
0.00000000e+00
0.00000000e+00
8.10557435e+02
9.87949995e+02
0.00000000e+00
0.00000000e+00
0.00000000e+00
9.78457637e+02
0.00000000e+00
0.00000000e+00
0.00000000e+00
6.90005138e+02
6.76088478e+02
7.26001562e+02
0.00000000e+00
0.00000000e+00
0.00000000e+00
6.36227244e+02
8.95866290e+02
7.83280081e+02
7.43272737e+02
0.00000000e+00
0.00000000e+00
0.00000000e+00
9.25902031e+02
8.24410708e+02
0.00000000e+00
7.43156337e+02
9.44651700e+02
8.50344841e+02
0.00000000e+00
0.00000000e+00
7.89057813e+02
7.42711782e+02
0.00000000e+00
0.00000000e+00
0.00000000e+00
0.00000000e+00
0.00000000e+00
0.00000000e+00
0.00000000e+00
0.00000000e+00
0.00000000e+00
0.00000000e+00
9.86359427e+02
9.72870632e+02
9.98292072e+02
0.00000000e+00
8.53862763e+02
0.00000000e+00
0.00000000e+00
0.00000000e+00
0.00000000e+00
8.09340623e+02
7.67191596e+02
0.00000000e+00
0.00000000e+00
0.00000000e+00
0.00000000e+00
0.00000000e+00
0.00000000e+00
0.00000000e+00
0.00000000e+00
0.00000000e+00
8.91931807e+02
9.61358069e+02
1.01436067e+03
8.84735891e+02
0.00000000e+00
0.00000000e+00
7.58785248e+02
0.00000000e+00
0.00000000e+00
0.00000000e+00
0.00000000e+00
7.30223501e+02
0.00000000e+00
0.00000000e+00
0.00000000e+00
0.00000000e+00
0.00000000e+00
0.00000000e+00
0.00000000e+00
0.00000000e+00
8.54813054e+02
9.33131312e+02
1.07511636e+03
0.00000000e+00
0.00000000e+00
0.00000000e+00
0.00000000e+00
0.00000000e+00
0.00000000e+00
0.00000000e+00
0.00000000e+00
7.40905029e+02
7.71686465e+02
5.81971680e+02
0.00000000e+00
0.00000000e+00
0.00000000e+00
0.00000000e+00
0.00000000e+00
9.35077977e+02
9.11806687e+02
8.14621967e+02
0.00000000e+00
9.27645996e+02
0.00000000e+00
0.00000000e+00
0.00000000e+00
0.00000000e+00
0.00000000e+00
0.00000000e+00
0.00000000e+00
7.11484034e+02
8.02876155e+02
6.83079403e+02
0.00000000e+00
0.00000000e+00
0.00000000e+00
0.00000000e+00
0.00000000e+00
0.00000000e+00
7.89096408e+02
9.52234763e+02
0.00000000e+00
9.73936227e+02
8.41915051e+02
9.29141871e+02
0.00000000e+00
7.61567290e+02
6.48321707e+02
0.00000000e+00
0.00000000e+00
6.25416991e+02
7.45821209e+02
0.00000000e+00
5.83051682e+02
0.00000000e+00
0.00000000e+00
0.00000000e+00
0.00000000e+00
0.00000000e+00
7.11727901e+02
8.59203802e+02
0.00000000e+00
9.93966446e+02
9.79234580e+02
9.42592375e+02
9.43244309e+02
0.00000000e+00
7.19714140e+02
0.00000000e+00
0.00000000e+00
0.00000000e+00
0.00000000e+00
0.00000000e+00
8.07685485e+02
6.83858527e+02
7.32661381e+02
0.00000000e+00
0.00000000e+00
0.00000000e+00
0.00000000e+00
0.00000000e+00
1.06165832e+03
1.07542400e+03
9.67325149e+02
9.06258169e+02
0.00000000e+00
0.00000000e+00
8.49026703e+02
0.00000000e+00
0.00000000e+00
0.00000000e+00
0.00000000e+00
0.00000000e+00
0.00000000e+00
0.00000000e+00
0.00000000e+00
8.80003171e+02
0.00000000e+00
9.11104084e+02
0.00000000e+00
8.24412963e+02
0.00000000e+00
9.91403583e+02
0.00000000e+00
0.00000000e+00
0.00000000e+00
0.00000000e+00
1.02609137e+03
0.00000000e+00
0.00000000e+00
0.00000000e+00
0.00000000e+00
6.06184009e+02
0.00000000e+00
0.00000000e+00
0.00000000e+00
0.00000000e+00
0.00000000e+00
0.00000000e+00
9.64898116e+02
1.20243920e+03
0.00000000e+00
1.38570796e+03
1.23933329e+03
1.16649290e+03
0.00000000e+00
0.00000000e+00
1.00612061e+03
1.05397336e+03
9.84010633e+02
0.00000000e+00
0.00000000e+00
0.00000000e+00
0.00000000e+00
7.66813720e+02
7.35426777e+02
0.00000000e+00
7.67506326e+02
0.00000000e+00
1.23204743e+03
1.31470534e+03
1.45230301e+03
1.45567220e+03
1.65219078e+03
1.43468524e+03
1.32249573e+03
1.02896305e+03
0.00000000e+00
0.00000000e+00
1.22764359e+03
1.13148546e+03
1.06248943e+03
0.00000000e+00
9.49721819e+02
0.00000000e+00
0.00000000e+00
5.13151250e+02
0.00000000e+00
0.00000000e+00
0.00000000e+00
1.10452458e+03
1.34941769e+03
0.00000000e+00
1.03265001e+03
1.32952787e+03
1.16382029e+03
8.52520600e+02
1.06450867e+03
1.06898207e+03
1.45880779e+03
0.00000000e+00
1.03067914e+03
1.05454971e+03
5.99799964e+02
0.00000000e+00
0.00000000e+00
7.71607857e+02
6.39557329e+02
1.67176413e+03
7.70546217e+02
1.36531344e+03
8.28628460e+02
1.06431128e+03
5.12004141e+02
1.44890085e+03
2.01447986e+03
2.09925213e+03
6.12175934e+02
2.03392155e+03
1.67911177e+03
1.22537257e+03
1.23645028e+03
1.12268665e+03
1.26422064e+03
1.04795083e+03
0.00000000e+00
0.00000000e+00
9.54543031e+02
9.53226792e+02
1.62635069e+03
5.94036325e+02
5.71442609e+02
1.74668189e+03
0.00000000e+00
5.56669711e+02
8.46368590e+02
7.63444797e+02
7.35278808e+02
7.27972302e+02
0.00000000e+00
1.72970546e+03
1.08640210e+03
8.88602777e+02
8.08859619e+02
1.24852107e+03
1.07534429e+03
0.00000000e+00
0.00000000e+00
6.79611654e+02
1.96393291e+03
6.78580062e+02
7.30965173e+02
1.76980661e+03
7.40631517e+02
1.18596711e+03
5.01676737e+02
8.77893445e+02
9.51264496e+02
1.20992189e+03
1.44884537e+03
1.20162838e+03
1.19845919e+03
1.06789397e+03
1.45468882e+03
9.49144166e+02
1.02146092e+03
1.55036810e+03
1.40294092e+03
0.00000000e+00
9.26359560e+02
1.58458708e+03
1.45244743e+03
1.96770665e+03
1.81852196e+03
1.17482041e+03
7.52368781e+02
7.55977225e+02
1.53761069e+03
1.82760158e+03
2.14538564e+03
9.35435916e+02
1.70693923e+03
4.07297789e+02
1.77791542e+03
6.63188209e+02
1.17240578e+03
1.27363379e+03
8.47391599e+02
1.43163129e+03
0.00000000e+00
2.03399106e+03
5.85230345e+02
8.51039108e+02
2.18321442e+03
1.09294393e+03
2.04596432e+03
1.16136624e+03
6.58271286e+02
8.25688358e+02
1.92337639e+03
1.10293147e+03
1.59820699e+03
1.40290453e+03
8.69235630e+02
0.00000000e+00
7.46528536e+02
1.09000308e+03
8.01622156e+02
1.20571686e+03
1.38418223e+03
0.00000000e+00
1.24780768e+03
9.96037188e+02
1.20878780e+03
1.33749134e+03
8.64659183e+02
1.67138741e+03
1.22677518e+03
4.58493456e+02
2.09412350e+03
9.97536995e+02
1.56765298e+03
2.13876493e+03
1.27597735e+03
1.21945606e+03
1.31167887e+03
1.21767083e+03
8.81316032e+02
1.01017240e+03
8.22084380e+02
1.25476528e+03
0.00000000e+00
7.54863570e+02
0.00000000e+00
1.19725675e+03
1.23517801e+03
1.65007721e+03
8.42861700e+02
1.89839668e+03
1.68389719e+03
1.56897400e+03
1.36399211e+03
1.07259412e+03
2.00547429e+03
1.28129529e+03
1.44253465e+03
1.66576797e+03
8.65333734e+02
9.92058681e+02
0.00000000e+00
8.34600726e+02
1.22021873e+03
0.00000000e+00
1.68332439e+03
0.00000000e+00
7.80351527e+02
1.73359310e+03
1.41960746e+03
9.72195409e+02
1.62730238e+03
1.87803391e+03
6.67057832e+02
1.38038463e+03
2.06197719e+03
1.45154311e+03
1.46151204e+03
1.08596440e+03
1.07249606e+03
1.97306593e+03
1.94805827e+03
0.00000000e+00
1.20211152e+03
0.00000000e+00
8.67007941e+02
1.85819427e+03
6.57651625e+02
1.01375667e+03
9.84295484e+02
6.69619845e+02
8.84634538e+02
1.00873633e+03
1.67520121e+03
1.03640624e+03
8.45267470e+02
9.78404678e+02
1.94769043e+03
1.22476673e+03
1.12115845e+03
1.20650824e+03
8.91622815e+02
1.14410867e+03
0.00000000e+00
9.50894829e+02
9.03053164e+02
1.06167079e+03
1.24127224e+03
0.00000000e+00
1.07449560e+03
8.56780699e+02
1.03857384e+03
7.09707530e+02
1.37745046e+03
1.25213040e+03
1.72732501e+03
1.23834734e+03
1.80664307e+03
4.76233816e+02
1.73691861e+03
1.01999647e+03
1.14809720e+03
1.67242503e+03
1.99246285e+03
0.00000000e+00
1.21330615e+03
0.00000000e+00
8.05708808e+02
1.02007553e+03
0.00000000e+00
9.15305013e+02
8.62700062e+02
8.38936530e+02
1.03734142e+03
1.07241117e+03
2.14640158e+03
1.47333469e+03
2.00265380e+03
1.37697595e+03
1.44614485e+03
1.14421754e+03
1.53548543e+03
1.08880251e+03
1.17885107e+03
1.03425294e+03
0.00000000e+00
1.13793611e+03
6.79632890e+02
0.00000000e+00
1.35318811e+03
0.00000000e+00
1.42778796e+03
1.51597382e+03
8.68581331e+02
1.25169725e+03
1.50127168e+03
2.10540669e+03
1.40521846e+03
1.46503357e+03
1.99966452e+03
6.25224715e+02
2.10522335e+03
1.17618859e+03
1.31433080e+03
1.26485904e+03
1.90021416e+03
0.00000000e+00
1.81487524e+03
0.00000000e+00
0.00000000e+00
8.51035929e+02
0.00000000e+00
1.25372889e+03
8.89109267e+02
9.27367771e+02
1.16467435e+03
1.25024531e+03
1.72717454e+03
1.18842515e+03
1.21019404e+03
1.27185321e+03
1.37096952e+03
1.07971716e+03
1.05964289e+03
1.24889544e+03
1.19173866e+03
1.35071048e+03
6.75348171e+02
8.60244236e+02
0.00000000e+00
0.00000000e+00
8.90764945e+02
8.73661868e+02
1.20851454e+03
1.26483684e+03
1.11094627e+03
1.53850063e+03
2.20553145e+03
1.69251538e+03
1.44741413e+03
1.90404346e+03
1.38075894e+03
1.22424748e+03
1.28419628e+03
1.29121707e+03
1.40017522e+03
1.84174937e+03
1.26236280e+03
1.17559681e+03
1.00118741e+03
0.00000000e+00
0.00000000e+00
1.08959935e+03
1.11642668e+03
9.09236974e+02
9.69295773e+02
0.00000000e+00
1.18806694e+03
1.19459313e+03
9.72814235e+02
1.39830215e+03
1.53619790e+03
1.64161600e+03
1.32060875e+03
1.18316012e+03
1.18507208e+03
9.82199163e+02
1.57734745e+03
1.05777041e+03
1.36704257e+03
1.14948345e+03
0.00000000e+00
0.00000000e+00
1.29720013e+03
1.41341494e+03
8.71521449e+02
1.83844560e+03
1.15289520e+03
1.41826617e+03
1.04589607e+03
1.70983645e+03
1.36183716e+03
1.29610044e+03
1.35358511e+03
1.50904376e+03
1.48815408e+03
2.11085545e+03
1.27391942e+03
2.13149124e+03
1.22653949e+03
1.60554191e+03
8.25780178e+02
1.06149455e+03
5.72709590e+02
1.16099046e+03
8.30869894e+02
1.22448963e+03
9.92595998e+02
1.58005211e+03
1.36109157e+03
1.37042291e+03
1.57745296e+03
1.55396176e+03
1.54325767e+03
1.54416848e+03
1.92009826e+03
1.67971226e+03
1.34795740e+03
1.23286398e+03
1.33982182e+03
1.47450307e+03
1.16196230e+03
1.00920883e+03
7.66705843e+02
0.00000000e+00
1.09225027e+03
9.92466897e+02
9.84074678e+02
1.52253804e+03
1.30873796e+03
1.06607349e+03
1.02310845e+03
1.17268445e+03
0.00000000e+00
9.94304280e+02
9.94015851e+02
1.14965949e+03
0.00000000e+00
1.14824009e+03
1.41820997e+03
1.24970140e+03
1.13397773e+03
9.78929428e+02
1.30618976e+03
8.98357144e+02
0.00000000e+00
1.76107517e+03
1.06656520e+03
1.36393276e+03
1.09112341e+03
1.49815792e+03
1.37431001e+03
1.31857780e+03
1.53698013e+03
1.65102756e+03
1.74471951e+03
1.60656990e+03
1.83574666e+03
1.58395323e+03
1.42217468e+03
1.25962685e+03
1.32510966e+03
1.35433687e+03
1.27869842e+03
1.87274871e+03
9.49907563e+02
7.17948829e+02
7.56400147e+02
0.00000000e+00
0.00000000e+00
0.00000000e+00
7.88300757e+02
9.29314601e+02
1.20425983e+03
0.00000000e+00
1.38095503e+03
1.56443431e+03
1.57986361e+03
0.00000000e+00
1.07055749e+03
1.02075489e+03
1.11217971e+03
1.09920940e+03
1.30019559e+03
1.21910872e+03
1.01405487e+03
1.04703429e+03
0.00000000e+00
0.00000000e+00
0.00000000e+00
0.00000000e+00
4.95752511e+02
0.00000000e+00
9.38855648e+02
0.00000000e+00
1.25546792e+03
8.39545008e+02
7.75319483e+02
1.19113379e+03
1.00166899e+03
0.00000000e+00
9.33319988e+02
0.00000000e+00
7.39398937e+02
9.04595046e+02
8.37066006e+02
9.94769983e+02
1.20790950e+03
0.00000000e+00
1.52535223e+03
1.07802747e+03
8.59720542e+02
8.44682236e+02
5.04629784e+02
9.23497134e+02
8.25353843e+02
1.85794201e+03
9.20096953e+02
9.11165383e+02
1.11886651e+03
3.48493250e+02
0.00000000e+00
1.07775937e+03
1.29426811e+03
1.75002002e+03
1.45347049e+03
1.21608321e+03
9.52037710e+02
1.32525374e+03
0.00000000e+00
1.07563757e+03
1.61907032e+03
2.08761471e+03
1.82763246e+03
2.05126631e+03
2.06072266e+03
7.53007917e+02
1.90366375e+03
1.00019988e+03
4.34498996e+02
9.06069909e+02
1.15501012e+03
1.24255228e+03
1.24295091e+03
1.80037378e+03
5.73308162e+02
6.00969165e+02
1.19775846e+03
9.91932091e+02
0.00000000e+00
0.00000000e+00
6.42709464e+02
1.98893121e+03
4.72076772e+02
2.09744633e+03
1.20710608e+03
1.16815973e+03
1.12067801e+03
1.53876531e+03
4.75987459e+02
6.53026725e+02
1.40998754e+03
1.35649577e+03
5.49742264e+02
9.45074924e+02
6.43019101e+02
7.43066316e+02
1.50741561e+03
6.81493364e+02
1.08434071e+03
8.79954212e+02
1.03704898e+03
1.60117409e+03
1.44536708e+03
6.49004073e+02
1.16301204e+03
2.12101130e+03
1.10833670e+03
1.25542478e+03
9.11402594e+02
1.43226792e+03
6.61602272e+02
0.00000000e+00
9.27444872e+02
1.13547777e+03
8.83007371e+02
1.08806670e+03
1.25200168e+03
6.19654960e+02
1.73080853e+03
1.27276898e+03
1.28687788e+03
0.00000000e+00
1.17417859e+03
1.72171589e+03
1.19761787e+03
1.98941378e+03
1.46545086e+03
1.61268569e+03
1.32804502e+03
5.29850970e+02
1.01158068e+03
5.65919198e+02
2.10478662e+03
9.22571321e+02
3.28849400e+02
1.18236376e+03
7.97757997e+02
1.31196978e+03
1.14520372e+03
8.47687039e+02
7.67957999e+02
1.60018519e+03
1.03632673e+03
1.24161446e+03
1.53618876e+03
1.00083309e+03
1.96242025e+03
2.10049110e+03
1.15998384e+03
1.50780853e+03
9.65229029e+02
2.07510587e+03
1.42278925e+03
5.50208768e+02
5.25394177e+02
1.06943665e+03
1.70396923e+03
1.71335786e+03
1.29070069e+03
1.87237564e+03
8.49070553e+02
1.07143624e+03
1.39209964e+03
0.00000000e+00
0.00000000e+00
1.98221672e+03
1.80537553e+03
1.64794963e+03
1.55657257e+03
7.39948238e+02
1.00351138e+03
1.02101655e+03
1.17218211e+03
2.01204235e+03
1.40772538e+03
1.21630873e+03
1.95717754e+03
1.89695266e+03
1.21174414e+03
1.86857548e+03
1.89484596e+03
1.80572308e+03
1.48611218e+03
1.41342046e+03
0.00000000e+00
1.04995131e+03
5.08879715e+02
1.07649865e+03
1.67000377e+03
8.34186475e+02
2.13724504e+03
1.11648575e+03
1.58494770e+03
1.64289749e+03
1.97075242e+03
1.06347484e+03
7.56778827e+02
1.38755867e+03
1.83464968e+03
7.98028029e+02
2.05908653e+03
1.51210434e+03
1.33174797e+03
0.00000000e+00
1.50226637e+03
1.13637244e+03
1.25858545e+03
1.76232520e+03
7.41418346e+02
2.13548414e+03
2.05861064e+03
1.97101707e+03
4.61631516e+02
6.46824404e+02
1.54293888e+03
9.36094036e+02
2.03289616e+03
1.03036890e+03
4.92878109e+02
1.50643836e+03
1.09165547e+03
1.27594544e+03
1.08814114e+03
9.12762210e+02
1.30647331e+03
0.00000000e+00
1.19855550e+03
1.15332321e+03
1.39089503e+03
8.39885150e+02
1.71448645e+03
2.11949810e+03
1.33671164e+03
1.12733091e+03
2.00994818e+03
2.11411979e+03
1.10892411e+03
2.09158322e+03
3.25306842e+02
2.00134256e+03
1.59588453e+03
1.43092749e+03
1.45146601e+03
1.21136321e+03
5.98366773e+02
0.00000000e+00
7.10642695e+02
0.00000000e+00
1.29085503e+03
2.01534866e+03
1.03878569e+03
1.53907803e+03
5.77316271e+02
1.18015033e+03
7.61422655e+02
2.03614569e+03
1.91846892e+03
1.62631381e+03
1.48244537e+03
6.98815090e+02
1.75908004e+03
1.27084592e+03
1.30870462e+03
1.09771330e+03
1.31459286e+03
2.18379300e+03
0.00000000e+00
0.00000000e+00
9.19762937e+02
1.04646018e+03
1.30307693e+03
1.12385340e+03
1.95316681e+03
1.32681267e+03
1.93803922e+03
1.93175576e+03
1.97167770e+03
1.93341115e+03
1.00498396e+03
1.92115395e+03
4.41618300e+02
1.87194935e+03
1.25019395e+03
2.01208113e+03
2.11505362e+03
1.28441048e+03
2.05156371e+03
7.17638461e+02
0.00000000e+00
7.96652973e+02
1.25581821e+03
1.98253597e+03
1.14357181e+03
1.79204717e+03
1.33796914e+03
1.32153605e+03
8.53602481e+02
1.48298824e+03
1.73962503e+03
6.21296931e+02
2.18088593e+03
2.09982861e+03
1.97996460e+03
1.23713474e+03
1.29400622e+03
2.04295105e+03
1.48960651e+03
1.14720152e+03
0.00000000e+00
7.49317861e+02
0.00000000e+00
1.64265439e+03
1.66827174e+03
1.51260181e+03
1.88873415e+03
1.73965207e+03
1.35366241e+03
1.02795277e+03
1.88771149e+03
1.73772881e+03
1.48211583e+03
1.89218541e+03
1.83785403e+03
1.11811666e+03
1.97028801e+03
1.99950806e+03
3.69299191e+02
1.49770662e+03
1.82223166e+03
1.09445683e+03
0.00000000e+00
6.73141708e+02
1.39478574e+03
1.87565934e+03
1.58622817e+03
1.59591109e+03
1.48243797e+03
2.00525058e+03
1.43600713e+03
2.09448873e+03
1.65277816e+03
4.36834895e+02
1.84774165e+03
2.06772373e+03
1.39778025e+03
1.69980984e+03
2.05834016e+03
1.93902392e+03
1.60450096e+03
1.42942747e+03
9.96320918e+02
9.11371016e+02
5.86253589e+02
1.73181425e+03
9.67912736e+02
1.96209679e+03
8.50330115e+02
1.16182837e+03
8.13547630e+02
1.48390662e+03
1.71800439e+03
2.02504434e+03
1.84549922e+03
1.49942674e+03
1.38804754e+03
1.47154789e+03
2.08938090e+03
9.78278853e+02
2.13352072e+03
1.91256553e+03
1.99939453e+03
1.27073972e+03
7.63295856e+02
0.00000000e+00
9.33287282e+02
1.15687084e+03
1.23647190e+03
5.22624331e+02
1.93857903e+03
1.90334595e+03
1.78792076e+03
1.19416792e+03
1.51088900e+03
1.54757539e+03
1.41613778e+03
1.24674117e+03
1.54063458e+03
1.47560378e+03
2.00540333e+03
1.86592963e+03
1.64915441e+03
1.55456940e+03
1.12123877e+03
1.01866855e+03
0.00000000e+00
1.19158785e+03
1.71583117e+03
1.72549340e+03
1.47194561e+03
1.80321785e+03
1.54214663e+03
1.93071328e+03
1.82199932e+03
1.49011429e+03
1.10696869e+03
2.11343617e+03
1.92235728e+03
1.60519842e+03
1.57180524e+03
1.84256514e+03
1.93238470e+03
2.08036886e+03
1.74280881e+03
1.15880742e+03
1.11427649e+03
0.00000000e+00
1.21942322e+03
9.93217975e+02
1.71266547e+03
1.95193764e+03
1.79314435e+03
1.49839385e+03
0.00000000e+00
1.48779804e+03
1.55097132e+03
1.67004559e+03
0.00000000e+00
1.49026175e+03
1.24636128e+03
1.47307649e+03
1.42546054e+03
1.50574697e+03
1.23608533e+03
1.68139635e+03
8.34228532e+02
1.10075941e+03
6.85017011e+02
0.00000000e+00
5.98515712e+02
0.00000000e+00
0.00000000e+00
8.89798973e+02
9.29960872e+02
0.00000000e+00
1.15600425e+03
1.21675699e+03
1.32240855e+03
0.00000000e+00
1.00076702e+03
0.00000000e+00
1.02581987e+03
1.00758232e+03
9.22315577e+02
1.06857212e+03
1.06196063e+03
0.00000000e+00
0.00000000e+00
0.00000000e+00
1.00444721e+03
0.00000000e+00
2.06692620e+03
8.86583548e+02
1.21468201e+03