# vtk DataFile Version 3.0
MPS 3D Simulation Step 8700
ASCII
DATASET UNSTRUCTURED_GRID
POINTS 20213 double
-1.16841566e-03 3.19742174e-04 -7.72133450e-04
-1.08254567e-03 1.78971054e-04 -8.11403718e-04
-9.58021700e-04 2.82828784e-04 -1.01266293e-03
-9.07010952e-04 3.20293410e-04 -1.07024954e-03
-8.64901570e-04 1.71028493e-04 -1.03743680e-03
-8.50996488e-04 3.55992234e-04 -1.12079895e-03
-6.32021811e-04 2.48246087e-04 -1.22264042e-03
-4.95874614e-04 2.66423003e-04 -1.28514635e-03
-4.57368205e-04 4.21300518e-04 -1.22297565e-03
-3.86403449e-04 8.53858886e-04 -1.12137474e-03
-2.20861464e-04 9.34287274e-04 -1.10766185e-03
-3.66677181e-04 9.26675269e-04 -1.20677472e-03
-8.74404006e-05 7.06545693e-04 -1.08189116e-03
-5.17305308e-05 2.09470486e-04 -1.35083157e-03
1.36138579e-05 2.44210659e-04 -1.36744726e-03
5.07431781e-04 1.45766109e-04 -1.22130548e-03
1.75132380e-04 7.64870962e-04 -6.63016137e-04
4.97343313e-04 2.37121323e-04 -1.27569467e-03
5.37580486e-04 7.98955187e-04 -1.07387201e-03
7.45364698e-04 8.56476693e-04 -9.00943216e-04
1.10186317e-03 6.46012953e-04 -7.40680437e-04
-1.12790514e-03 2.42044239e-04 -7.86585848e-04
-1.07141019e-03 2.33980656e-04 -8.69365232e-04
-1.01828980e-03 3.33194331e-04 -9.73788952e-04
-9.21579948e-04 4.06637504e-04 -1.07507746e-03
-8.87363407e-04 5.25135460e-04 -1.11228603e-03
-1.00015623e-03 4.48544744e-04 -1.01171459e-03
-7.97487158e-04 4.09227722e-04 -1.16736723e-03
-5.97709725e-04 3.85849635e-04 -1.27699672e-03
-4.13090958e-04 2.29125156e-04 -1.29648847e-03
-4.16535019e-04 1.34969047e-04 -1.23990510e-03
-1.34363025e-04 2.38215392e-04 -1.35527001e-03
9.78397708e-05 2.16057811e-04 -1.35400536e-03
1.54797476e-04 3.94949113e-04 -1.39548225e-03
2.56516746e-04 3.20557700e-04 -1.36662754e-03
2.58759862e-04 2.42756590e-04 -1.34490604e-03
4.47743644e-04 1.72765314e-04 -1.25883186e-03
4.06448771e-04 3.20676161e-04 -1.33302187e-03
4.12318381e-04 7.57730845e-04 -1.24240035e-03
4.17998116e-04 2.44220438e-04 -1.30495536e-03
5.66982642e-04 2.14511729e-04 -1.23980862e-03
7.75438074e-04 1.15471793e-04 -1.00802192e-03
-1.11416336e-03 3.01172604e-04 -8.42530557e-04
-1.09137863e-03 3.65254602e-04 -8.98375237e-04
-1.07540340e-03 5.77650906e-04 -9.41301974e-04
-8.38422434e-04 2.68710495e-04 -1.10358916e-03
-9.72487123e-04 3.69371137e-04 -1.02527472e-03
-8.65720977e-04 4.46381773e-04 -1.12142294e-03
-5.79777799e-04 3.01609821e-04 -1.26576023e-03
-7.08751513e-04 2.89609760e-04 -1.19684069e-03
-4.45794672e-04 3.79560421e-04 -1.33204832e-03
-3.21171246e-04 2.46941159e-04 -1.32644354e-03
-1.40612912e-04 4.28395910e-04 -1.40665423e-03
-7.24788172e-05 2.88705919e-04 -1.37895140e-03
1.00079491e-04 4.66510175e-04 -1.40961803e-03
3.24755948e-04 3.77206800e-04 -1.36254891e-03
2.58775681e-04 1.72968844e-04 -1.31571797e-03
3.86975217e-04 4.76092084e-04 -1.35969156e-03
4.82273678e-04 3.99456983e-04 -1.32389333e-03
4.03698727e-04 3.98941061e-04 -1.34744841e-03
6.32643939e-04 2.87699528e-04 -1.24107158e-03
7.20577037e-04 1.98865096e-04 -1.14488712e-03
7.11181718e-04 1.31712528e-04 -1.08606398e-03
-1.19132439e-03 4.14837808e-04 -7.70336304e-04
-1.10924190e-03 4.44217394e-04 -8.90952227e-04
-1.06322582e-03 4.95118152e-04 -9.49289565e-04
-9.44042162e-04 4.83352509e-04 -1.06636538e-03
-8.09753639e-04 4.97884473e-04 -1.16479567e-03
-7.33741748e-04 3.68899435e-04 -1.20141363e-03
-6.56189582e-04 3.34384124e-04 -1.23940983e-03
-3.53118633e-04 3.24206762e-04 -1.34611445e-03
-2.89285726e-04 3.71474113e-04 -1.37324858e-03
-3.53310626e-04 1.82413443e-04 -1.28882137e-03
-6.94666934e-05 4.67986462e-04 -1.41546096e-03
-1.65750040e-04 1.70248443e-04 -1.31589001e-03
-4.75937203e-05 3.82767073e-04 -1.40304895e-03
5.78722201e-06 3.21578626e-04 -1.39012027e-03
2.38267120e-04 4.04652338e-04 -1.38334211e-03
3.31653619e-04 2.91360126e-04 -1.34419898e-03
4.11441577e-04 5.62138066e-04 -1.35721894e-03
7.05293123e-04 3.45367219e-04 -1.22141638e-03
7.04927896e-04 2.65517801e-04 -1.19325510e-03
7.79094385e-04 2.50717098e-04 -1.13356873e-03
8.49006310e-04 2.59326599e-04 -1.08676957e-03
-1.20745548e-03 4.98359373e-04 -7.61233695e-04
-1.02364340e-03 6.09958089e-04 -9.97323686e-04
-1.04979966e-03 4.11950794e-04 -9.55930443e-04
-8.30465309e-04 5.77043405e-04 -1.15499802e-03
-6.81219264e-04 5.04742476e-04 -1.24627963e-03
-7.40544999e-04 4.60180370e-04 -1.20927639e-03
-3.70599151e-04 4.06749590e-04 -1.35824786e-03
-2.86865326e-04 4.47901268e-04 -1.38903481e-03
-2.11324438e-04 3.85530350e-04 -1.39020357e-03
-1.44672877e-04 5.20963278e-04 -1.41511502e-03
-7.14534888e-05 5.62394584e-04 -1.42207613e-03
-1.82830622e-04 3.05238465e-04 -1.37239775e-03
7.62514187e-07 5.12287359e-04 -1.42147919e-03
2.25539060e-04 5.87583041e-04 -1.40824133e-03
2.14217834e-05 4.27533764e-04 -1.40968611e-03
3.08596334e-04 4.58455094e-04 -1.37621952e-03
3.31785531e-04 5.54942998e-04 -1.37805582e-03
5.60841191e-04 2.97844286e-04 -1.27504970e-03
7.66951334e-04 3.27523118e-04 -1.17432815e-03
8.34007236e-04 3.27506614e-04 -1.12622021e-03
8.21341154e-04 4.08372930e-04 -1.15631901e-03
-1.19391659e-03 6.35272839e-04 -7.90956312e-04
-1.12227289e-03 5.32025349e-04 -8.83504517e-04
-9.71385425e-04 6.46937248e-04 -1.04845912e-03
-1.01171321e-03 5.30252662e-04 -1.00654748e-03
-7.53492964e-04 5.47958815e-04 -1.20454605e-03
-6.04913725e-04 4.69022830e-04 -1.28223998e-03
-5.26929661e-04 4.29596742e-04 -1.31262312e-03
-4.52831494e-04 4.63980991e-04 -1.34236076e-03
-2.12837545e-04 4.76757499e-04 -1.40474227e-03
-3.06693750e-04 5.24969982e-04 -1.39396426e-03
-2.34318397e-04 5.60873910e-04 -1.40697284e-03
-1.23156045e-04 3.50281933e-04 -1.39456161e-03
1.87293567e-04 4.75386098e-04 -1.40067769e-03
2.56722880e-04 5.14817145e-04 -1.39514615e-03
9.02881228e-05 2.91589950e-04 -1.37813388e-03
2.12479666e-04 7.58009950e-04 -1.39684005e-03
2.96043783e-04 6.27086126e-04 -1.39180209e-03
4.64627442e-04 4.87960371e-04 -1.33645021e-03
6.36998647e-04 3.65829943e-04 -1.26108523e-03
7.56665979e-04 4.15885033e-04 -1.20156107e-03
9.14317974e-04 4.70382874e-04 -1.09317604e-03
-1.17604263e-03 5.59759525e-04 -8.16932529e-04
-1.15948540e-03 4.73683392e-04 -8.29923043e-04
-1.03201195e-03 6.90708044e-04 -9.83233221e-04
-9.02824660e-04 6.11764041e-04 -1.10502227e-03
-7.68631014e-04 6.28552543e-04 -1.19753605e-03
-6.18468211e-04 5.49121153e-04 -1.28275857e-03
-5.31982864e-04 5.11578037e-04 -1.31794962e-03
-3.78633681e-04 4.88250596e-04 -1.36921903e-03
-4.56807643e-04 5.48598966e-04 -1.34967042e-03
-3.80363564e-04 5.73459892e-04 -1.37539936e-03
-1.62014127e-04 6.03601726e-04 -1.41758942e-03
5.22179770e-06 6.02020085e-04 -1.42844584e-03
7.19258761e-05 5.45266546e-04 -1.42416103e-03
1.51980672e-04 5.51635648e-04 -1.41672354e-03
1.65139169e-04 6.44793697e-04 -1.41859094e-03
4.90016823e-04 5.74546943e-04 -1.33485496e-03
4.54905428e-04 6.52955189e-04 -1.34508767e-03
5.59305390e-04 3.76917800e-04 -1.29445050e-03
5.41522048e-04 4.62850992e-04 -1.31083066e-03
8.48718876e-04 4.88080621e-04 -1.14559537e-03
8.25625429e-04 5.71986281e-04 -1.16577814e-03
-1.20263285e-03 7.19839308e-04 -7.64911435e-04
-1.13163927e-03 6.15917787e-04 -8.72314367e-04
-1.08473545e-03 6.59339004e-04 -9.25315893e-04
-9.56460788e-04 5.65016364e-04 -1.06003276e-03
-6.91933598e-04 5.94384043e-04 -1.24144544e-03
-5.50171438e-04 5.89506685e-04 -1.31469855e-03
-5.54610602e-04 6.71469327e-04 -1.31052432e-03
-4.78734027e-04 6.26266542e-04 -1.34433917e-03
-4.05389711e-04 6.50018299e-04 -1.36764992e-03
-3.07541672e-04 6.14996711e-04 -1.39427902e-03
-2.34696851e-04 6.49267795e-04 -1.40602620e-03
-8.93677237e-05 6.44564414e-04 -1.42280921e-03
-1.79550448e-05 6.78698399e-04 -1.42750031e-03
9.09763634e-05 6.25263582e-04 -1.42757871e-03
1.37933843e-04 7.24324574e-04 -1.41450331e-03
3.73693798e-04 6.42493277e-04 -1.36904932e-03
3.17086749e-04 7.11629916e-04 -1.37982046e-03
5.39613953e-04 6.40803354e-04 -1.31702524e-03
6.16824367e-04 4.48501171e-04 -1.27983072e-03
7.80801667e-04 4.96266905e-04 -1.19404446e-03
7.91286928e-04 6.53500636e-04 -1.18556421e-03
-1.15805657e-03 6.86977034e-04 -8.37147121e-04
-1.11205914e-03 7.27763698e-04 -8.85195998e-04
-1.05905662e-03 7.55819389e-04 -9.39269569e-04
-7.81134034e-04 7.08285406e-04 -1.18289844e-03
-7.04851538e-04 6.77234702e-04 -1.23086167e-03
-6.26771543e-04 6.33393251e-04 -1.27779436e-03
-5.72034588e-04 7.49099367e-04 -1.29126712e-03
-4.82277055e-04 7.10035765e-04 -1.33700383e-03
-4.10003800e-04 7.36239289e-04 -1.35812046e-03
-3.37224346e-04 6.92396837e-04 -1.38622182e-03
-2.63989572e-04 7.24504219e-04 -1.39607700e-03
-1.62937312e-04 6.92811408e-04 -1.41267978e-03
-9.28528963e-05 7.35914398e-04 -1.41185708e-03
-1.08352807e-05 7.58015402e-04 -1.41390898e-03
6.05186556e-05 6.96915797e-04 -1.42498375e-03
2.82617313e-04 7.85998105e-04 -1.37635330e-03
3.02373920e-04 8.65953447e-04 -1.34953400e-03
4.02430293e-04 7.23087079e-04 -1.35467838e-03
5.60422093e-04 5.40890603e-04 -1.30830913e-03
6.90564797e-04 4.35282077e-04 -1.24427425e-03
7.55043461e-04 5.81505811e-04 -1.21455193e-03
-1.15903445e-03 7.70801340e-04 -8.11131988e-04
-1.05225538e-03 8.39896725e-04 -9.19439353e-04
-9.79449661e-04 7.31505273e-04 -1.03133466e-03
-8.41366026e-04 6.58225131e-04 -1.14713702e-03
-7.96752163e-04 7.87836163e-04 -1.15804398e-03
-6.39785203e-04 7.12375217e-04 -1.26299226e-03
-6.54712516e-04 7.89307249e-04 -1.23950465e-03
-5.01160980e-04 7.83308092e-04 -1.31596098e-03
-4.30662522e-04 8.14014492e-04 -1.33654314e-03
-3.42415159e-04 7.80080058e-04 -1.37239004e-03
-2.71544721e-04 8.14914706e-04 -1.38095955e-03
-1.96103893e-04 7.69428391e-04 -1.39944315e-03
-1.29555627e-04 8.11224676e-04 -1.39874997e-03
-4.74280947e-05 8.29589138e-04 -1.39622625e-03
6.83561328e-05 7.79926724e-04 -1.40768185e-03
2.16800334e-04 8.47068034e-04 -1.37217610e-03
3.88295824e-04 8.74366615e-04 -1.32594649e-03
3.62462009e-04 7.96743835e-04 -1.35311632e-03
6.09634257e-04 6.12340613e-04 -1.29010927e-03
7.12328108e-04 5.10558424e-04 -1.23705227e-03
7.46461052e-04 7.41772657e-04 -1.20067268e-03
-1.10670456e-03 8.09476890e-04 -8.65574915e-04
-1.04703110e-03 9.15448503e-04 -8.88785895e-04
[...]
POINT_DATA 20213
SCALARS pressure double 1
LOOKUP_TABLE default
0.00000000e+00
0.00000000e+00
1.04861583e+03
1.26464519e+03
0.00000000e+00
1.43142975e+03
1.63941880e+03
1.31390428e+03
1.23128700e+03
9.68388065e+02
1.16877002e+03
6.30368134e+02
1.58583729e+03
5.84486593e+02
0.00000000e+00
0.00000000e+00
2.60442270e+03
1.32541345e+03
1.52150269e+03
1.32913213e+03
7.08634203e+02
0.00000000e+00
6.57963504e+02
0.00000000e+00
0.00000000e+00
0.00000000e+00
0.00000000e+00
1.44262293e+03
1.39558243e+03
1.05743390e+03
9.14321261e+02
0.00000000e+00
9.39140263e+02
0.00000000e+00
9.30606265e+02
0.00000000e+00
1.16539841e+03
1.40794476e+03
1.29736365e+03
0.00000000e+00
1.23702386e+03
1.33567857e+03
0.00000000e+00
0.00000000e+00
0.00000000e+00
0.00000000e+00
8.77454174e+02
1.11211590e+03
1.49495537e+03
1.75271558e+03
1.03554293e+03
7.91148723e+02
0.00000000e+00
0.00000000e+00
0.00000000e+00
9.92716478e+02
0.00000000e+00
0.00000000e+00
1.30442087e+03
1.25717527e+03
0.00000000e+00
1.35519983e+03
1.27771508e+03
0.00000000e+00
0.00000000e+00
0.00000000e+00
0.00000000e+00
1.11852680e+03
1.61562047e+03
1.53546611e+03
8.28613788e+02
0.00000000e+00
0.00000000e+00
0.00000000e+00
0.00000000e+00
0.00000000e+00
0.00000000e+00
0.00000000e+00
1.21470138e+03
1.29607243e+03
0.00000000e+00
0.00000000e+00
1.47920832e+03
1.64095466e+03
1.15752003e+03
1.08675363e+03
0.00000000e+00
0.00000000e+00
1.16257879e+03
1.32446894e+03
0.00000000e+00
0.00000000e+00
0.00000000e+00
0.00000000e+00
5.52043766e+02
4.80856239e+02
0.00000000e+00
0.00000000e+00
0.00000000e+00
0.00000000e+00
1.01601280e+03
1.23199697e+03
1.23509590e+03
1.64212663e+03
1.19614133e+03
1.02546233e+03
8.89774654e+02
1.24733484e+03
0.00000000e+00
0.00000000e+00
1.12763819e+03
0.00000000e+00
0.00000000e+00
0.00000000e+00
0.00000000e+00
0.00000000e+00
0.00000000e+00
0.00000000e+00
0.00000000e+00
0.00000000e+00
5.93911412e+02
9.47747533e+02
1.33123827e+03
0.00000000e+00
0.00000000e+00
0.00000000e+00
1.07220507e+03
9.41490688e+02
1.21257535e+03
1.12151735e+03
0.00000000e+00
0.00000000e+00
0.00000000e+00
0.00000000e+00
0.00000000e+00
0.00000000e+00
0.00000000e+00
7.15785994e+02
0.00000000e+00
0.00000000e+00
4.62240533e+02
1.41564057e+03
1.50784761e+03
1.25492886e+03
1.30241971e+03
0.00000000e+00
0.00000000e+00
0.00000000e+00
1.11308390e+03
1.16922117e+03
1.00004368e+03
0.00000000e+00
0.00000000e+00
0.00000000e+00
0.00000000e+00
0.00000000e+00
0.00000000e+00
8.36225843e+02
7.62223634e+02
8.37160383e+02
0.00000000e+00
0.00000000e+00
1.20076954e+03
8.85982297e+02
1.56502002e+03
0.00000000e+00
0.00000000e+00
0.00000000e+00
0.00000000e+00
1.01235609e+03
1.05786662e+03
0.00000000e+00
8.86624383e+02
0.00000000e+00
7.53309842e+02
0.00000000e+00
7.89881276e+02
0.00000000e+00
8.60323073e+02
8.64263311e+02
8.62929641e+02
0.00000000e+00
0.00000000e+00
0.00000000e+00
0.00000000e+00
1.17032778e+03
1.45613486e+03
0.00000000e+00
0.00000000e+00
7.43006049e+02
0.00000000e+00
1.27926037e+03
1.05244055e+03
1.05197868e+03
0.00000000e+00
7.93006413e+02
6.64914767e+02
0.00000000e+00
0.00000000e+00
7.52543013e+02
9.06683580e+02
8.22763953e+02
0.00000000e+00
4.90908603e+02
0.00000000e+00
0.00000000e+00
0.00000000e+00
1.52761235e+03
1.14205596e+03
0.00000000e+00
0.00000000e+00
0.00000000e+00
1.20260886e+03
1.17967942e+03
8.64199345e+02
0.00000000e+00
6.76269124e+02
0.00000000e+00
0.00000000e+00
0.00000000e+00
1.06472332e+03
0.00000000e+00
7.32443593e+02
0.00000000e+00
0.00000000e+00
0.00000000e+00
0.00000000e+00
0.00000000e+00
1.27746623e+03
1.45608887e+03
1.13946605e+03
0.00000000e+00
0.00000000e+00
0.00000000e+00
1.05614711e+03
9.72268450e+02
0.00000000e+00
6.34106289e+02
0.00000000e+00
0.00000000e+00
0.00000000e+00
0.00000000e+00
0.00000000e+00
0.00000000e+00
0.00000000e+00
0.00000000e+00
0.00000000e+00
1.08721572e+03
0.00000000e+00
1.15629367e+03
1.15817273e+03
1.25554654e+03
0.00000000e+00
0.00000000e+00
9.75873717e+02
8.00979892e+02
0.00000000e+00
0.00000000e+00
0.00000000e+00
0.00000000e+00
0.00000000e+00
6.73531941e+02
7.03154292e+02
0.00000000e+00
0.00000000e+00
7.10572931e+02
0.00000000e+00
0.00000000e+00
7.76512662e+02
1.20823403e+03
0.00000000e+00
0.00000000e+00
1.21413451e+03
1.10309206e+03
9.52982460e+02
0.00000000e+00
8.29979201e+02
0.00000000e+00
0.00000000e+00
0.00000000e+00
0.00000000e+00
0.00000000e+00
0.00000000e+00
8.40116706e+02
7.68863253e+02
8.15966506e+02
8.24628464e+02
8.73051142e+02
0.00000000e+00
1.16577235e+03
1.23024684e+03
0.00000000e+00
0.00000000e+00
0.00000000e+00
7.74105565e+02
9.43055189e+02
9.66045603e+02
7.85200599e+02
0.00000000e+00
0.00000000e+00
0.00000000e+00
0.00000000e+00
0.00000000e+00
0.00000000e+00
9.06878098e+02
1.03868759e+03
9.79725967e+02
9.33512145e+02
0.00000000e+00
0.00000000e+00
1.30865905e+03
1.43273406e+03
1.27645456e+03
1.04071459e+03
0.00000000e+00
7.67485507e+02
0.00000000e+00
1.01049245e+03
0.00000000e+00
0.00000000e+00
0.00000000e+00
0.00000000e+00
0.00000000e+00
0.00000000e+00
0.00000000e+00
0.00000000e+00
9.47638346e+02
0.00000000e+00
0.00000000e+00
1.24110671e+03
1.00541623e+03
1.40978997e+03
1.49380566e+03
1.35059769e+03
1.22126284e+03
0.00000000e+00
9.86555522e+02
0.00000000e+00
7.41348246e+02
0.00000000e+00
0.00000000e+00
0.00000000e+00
0.00000000e+00
0.00000000e+00
0.00000000e+00
7.91151733e+02
9.05013067e+02
1.04998064e+03
0.00000000e+00
1.03330690e+03
1.24545856e+03
1.45702958e+03
1.41552011e+03
1.42033281e+03
1.52211483e+03
1.48341126e+03
1.35528923e+03
8.63138265e+02
0.00000000e+00
0.00000000e+00
0.00000000e+00
0.00000000e+00
0.00000000e+00
0.00000000e+00
0.00000000e+00
0.00000000e+00
0.00000000e+00
1.05169218e+03
1.09946931e+03
0.00000000e+00
1.19783329e+03
1.33469094e+03
1.29696639e+03
1.33525113e+03
0.00000000e+00
1.47410840e+03
1.46353108e+03
1.27584084e+03
1.01072293e+03
0.00000000e+00
0.00000000e+00
0.00000000e+00
0.00000000e+00
0.00000000e+00
0.00000000e+00
0.00000000e+00
0.00000000e+00
0.00000000e+00
0.00000000e+00
1.23553158e+03
1.18601986e+03
0.00000000e+00
1.33010616e+03
1.20799867e+03
1.23685503e+03
1.26893392e+03
1.36052083e+03
0.00000000e+00
1.22331702e+03
0.00000000e+00
6.87549138e+02
0.00000000e+00
9.09548958e+02
0.00000000e+00
0.00000000e+00
0.00000000e+00
0.00000000e+00
0.00000000e+00
0.00000000e+00
1.19738059e+03
0.00000000e+00
1.27340464e+03
0.00000000e+00
1.12136880e+03
0.00000000e+00
0.00000000e+00
1.09397297e+03
0.00000000e+00
0.00000000e+00
0.00000000e+00
7.10784235e+02
8.59216484e+02
8.82023699e+02
1.05884886e+03
9.27685121e+02
7.95895589e+02
9.87644958e+02
9.50693831e+02
1.16009370e+03
1.17423268e+03
1.19189425e+03
1.38093005e+03
1.30026248e+03
1.24404987e+03
1.12495491e+03
0.00000000e+00
9.94045200e+02
0.00000000e+00
0.00000000e+00
0.00000000e+00
7.32214205e+02
7.56768017e+02
6.89306029e+02
1.24618992e+03
0.00000000e+00
0.00000000e+00
1.23308664e+03
1.89345947e+03
1.65805477e+03
1.09576870e+03
1.39577964e+03
1.90039345e+03
2.30052722e+03
1.16479865e+03
1.45998044e+03
1.27900269e+03
1.92721593e+03
1.46109040e+03
1.38622314e+03
1.23974898e+03
1.43997677e+03
1.56550189e+03
0.00000000e+00
1.52447249e+03
1.08718772e+03
2.22943556e+03
6.26213604e+02
1.54184341e+03
8.97024335e+02
1.58410968e+03
9.71418332e+02
1.94317294e+03
2.33463833e+03
2.65719110e+03
9.45080782e+02
2.72002363e+03
2.42379696e+03
1.84432762e+03
1.62768451e+03
1.54927686e+03
1.87991130e+03
1.47778243e+03
1.43672323e+03
0.00000000e+00
1.45763423e+03
1.42439635e+03
1.91656974e+03
1.11225708e+03
1.37828038e+03
2.32806936e+03
1.26724262e+03
7.31024029e+02
9.27598965e+02
0.00000000e+00
0.00000000e+00
7.35792047e+02
0.00000000e+00
2.09278305e+03
1.44505778e+03
1.59020303e+03
9.01556142e+02
1.42933785e+03
9.62402557e+02
1.49523795e+03
0.00000000e+00
1.12352029e+03
2.74258409e+03
1.50012311e+03
1.56066244e+03
2.06919863e+03
5.57431045e+02
1.57901917e+03
1.30488956e+03
9.83953961e+02
1.40252412e+03
1.78165394e+03
2.41898377e+03
1.46324401e+03
1.48655668e+03
1.41205428e+03
2.05647062e+03
2.13476181e+03
1.53537621e+03
2.26734269e+03
1.23859813e+03
9.23474608e+02
1.21402070e+03
2.27590485e+03
2.21921684e+03
2.70111783e+03
2.23970954e+03
2.25954433e+03
1.06658552e+03
9.74089449e+02
2.14895417e+03
2.27014523e+03
2.40649197e+03
1.28830688e+03
1.00031865e+03
9.50018918e+02
2.67927673e+03
9.51096309e+02
1.55838381e+03
1.63953008e+03
9.19855112e+02
0.00000000e+00
0.00000000e+00
2.06301410e+03
9.75273020e+02
1.09765832e+03
1.99486276e+03
1.42649772e+03
2.58169823e+03
1.34040070e+03
8.41536961e+02
1.18561156e+03
2.60572560e+03
1.28615744e+03
1.95265199e+03
1.86836980e+03
1.10674124e+03
0.00000000e+00
1.41221729e+03
1.48212606e+03
1.41837363e+03
1.72276681e+03
1.10913023e+03
1.15726411e+03
1.44902646e+03
1.58290667e+03
1.98045090e+03
1.90222230e+03
7.39302059e+02
2.17596447e+03
1.57296583e+03
6.30638114e+02
2.12003113e+03
1.24085605e+03
1.90904845e+03
2.48811729e+03
1.54272329e+03
1.63467424e+03
1.87407602e+03
1.54036082e+03
1.43077114e+03
1.51245548e+03
1.14662936e+03
0.00000000e+00
1.12215921e+03
9.57363363e+02
0.00000000e+00
1.43429245e+03
1.46399811e+03
1.98777591e+03
1.79268314e+03
2.42982515e+03
1.78580431e+03
2.16578859e+03
1.53906256e+03
1.34370067e+03
2.33384407e+03
1.63817850e+03
2.20918369e+03
2.43636573e+03
1.19442967e+03
1.31760206e+03
1.33533711e+03
1.28883115e+03
0.00000000e+00
0.00000000e+00
2.36473404e+03
1.28696287e+03
2.06798251e+03
1.45886970e+03
1.85867480e+03
1.41378849e+03
2.09367139e+03
1.96248338e+03
7.13519224e+02
1.64129470e+03
2.61759042e+03
1.11987043e+03
2.03373135e+03
1.36230771e+03
1.41379931e+03
2.67474985e+03
2.68523070e+03
1.29388615e+03
1.22817634e+03
0.00000000e+00
8.98557712e+02
2.44660512e+03
1.24777764e+03
1.31957553e+03
9.10115409e+02
6.99588577e+02
8.87645086e+02
9.21484775e+02
2.05277430e+03
1.20558843e+03
1.05138537e+03
1.23795369e+03
2.66309360e+03
1.45125639e+03
1.34935384e+03
1.47777891e+03
1.50601777e+03
1.32076106e+03
1.39595894e+03
9.93669565e+02
1.19513168e+03
0.00000000e+00
2.02710821e+03
1.28848599e+03
1.30591380e+03
8.77116709e+02
1.05186792e+03
1.07213917e+03
1.73546763e+03
1.89156765e+03
2.15228329e+03
1.37173951e+03
2.31528542e+03
1.27688015e+03
2.31914261e+03
1.25844104e+03
1.20152259e+03
1.97097770e+03
2.31442471e+03
1.43419560e+03
1.47635061e+03
1.12064438e+03
0.00000000e+00
1.24562304e+03
1.22774425e+03
1.11425423e+03
7.91211216e+02
6.78033835e+02
1.38705721e+03
1.11498500e+03
2.62232048e+03
1.75507925e+03
2.34447022e+03
1.65456610e+03
1.99346854e+03
1.34711673e+03
1.98073843e+03
1.08685028e+03
1.06142528e+03
1.00483067e+03
1.41477574e+03
6.24133200e+02
1.16469656e+03
0.00000000e+00
1.95061272e+03
1.02956576e+03
1.85759095e+03
1.84733391e+03
6.82458057e+02
1.21548219e+03
2.12938571e+03
2.12790496e+03
1.44146269e+03
1.67003732e+03
2.52641440e+03
1.11193419e+03
2.69442423e+03
1.43183231e+03
1.24775469e+03
1.27702228e+03
2.70090686e+03
0.00000000e+00
2.47237406e+03
1.00950591e+03
0.00000000e+00
1.06741705e+03
1.17137796e+03
1.60572622e+03
1.01523507e+03
9.38174589e+02
1.43011481e+03
1.65568347e+03
1.93729758e+03
1.14432812e+03
1.37348087e+03
1.22698526e+03
1.50874550e+03
1.27045328e+03
1.34456059e+03
1.28995811e+03
1.53156602e+03
1.68602708e+03
1.28776729e+03
1.16354081e+03
0.00000000e+00
0.00000000e+00
1.20375800e+03
1.28571972e+03
1.42130991e+03
1.65251295e+03
1.37685919e+03
1.71519862e+03
2.47208140e+03
2.06617122e+03
1.33274418e+03
2.49315159e+03
1.46797857e+03
1.40226365e+03
1.34582500e+03
1.60249716e+03
1.66089633e+03
2.29209077e+03
9.66161023e+02
1.18848770e+03
9.86967835e+02
0.00000000e+00
1.00072728e+03
1.31635977e+03
1.41983892e+03
1.10150460e+03
1.01043031e+03
0.00000000e+00
1.20936438e+03
1.02671487e+03
1.09142654e+03
1.29390479e+03
1.50974300e+03
2.24874398e+03
1.47528457e+03
1.35455352e+03
9.72676897e+02
1.28289350e+03
2.01956881e+03
1.11849180e+03
1.51771410e+03
9.25514109e+02
1.01853336e+03
1.03830915e+03
1.46933020e+03
1.64295545e+03
1.26636018e+03
2.42502596e+03
1.01205666e+03
1.20432692e+03
7.46875723e+02
1.90027550e+03
1.18239297e+03
1.19774726e+03
1.38825952e+03
1.56015626e+03
1.45339279e+03
2.30959489e+03
1.52256028e+03
2.13895261e+03
1.18913165e+03
2.05302257e+03
7.93904817e+02
7.05435798e+02
8.06283077e+02
1.26466146e+03
1.20101905e+03
1.70537388e+03
1.17634343e+03
1.93385003e+03
1.37941235e+03
1.28411140e+03
1.50919737e+03
1.46080603e+03
1.36383570e+03
1.43534950e+03
2.21899062e+03
2.16992611e+03
1.36008898e+03
9.02227608e+02
1.27230578e+03
1.67841365e+03
8.67711282e+02
8.71719777e+02
1.06484611e+03
0.00000000e+00
1.34620308e+03
1.22870312e+03
1.33623550e+03
1.78562835e+03
1.33861348e+03
1.12392570e+03
6.41175899e+02
0.00000000e+00
7.00832259e+02
0.00000000e+00
1.17438651e+03
1.16669357e+03
0.00000000e+00
8.85000523e+02
1.35198998e+03
1.18258838e+03
9.23028399e+02
8.62383336e+02
1.62908757e+03
9.61587324e+02
0.00000000e+00
2.41028298e+03
1.01454252e+03
1.43496277e+03
1.03317552e+03
1.43182587e+03
1.10779980e+03
9.93437093e+02
1.32032706e+03
1.34567290e+03
1.91829693e+03
1.45576083e+03
2.46569115e+03
1.32145901e+03
1.15399891e+03
1.03859089e+03
9.92518442e+02
1.22657864e+03
1.59799521e+03
2.52385186e+03
7.67172080e+02
0.00000000e+00
0.00000000e+00
1.01231575e+03
0.00000000e+00
9.35049192e+02
9.04310478e+02
0.00000000e+00
9.88902388e+02
0.00000000e+00
1.04228834e+03
1.47942831e+03
1.33162619e+03
1.23800131e+03
9.93986413e+02
0.00000000e+00
0.00000000e+00
6.59632059e+02
8.47720390e+02
7.81219122e+02
0.00000000e+00
0.00000000e+00
0.00000000e+00
0.00000000e+00
6.87406920e+02
0.00000000e+00
9.19779841e+02
8.85540593e+02
1.50863573e+03
1.39505570e+03
1.56267467e+03
5.63683389e+02
4.53452277e+02
1.62616629e+03
1.32355660e+03
1.03643934e+03
1.57961296e+03
0.00000000e+00
1.54480663e+03
7.84066658e+02
1.30415438e+03
1.54495980e+03
0.00000000e+00
7.18834487e+02
1.57358396e+03
1.47423422e+03
1.28704125e+03
1.45971249e+03
1.07484066e+03
8.54786072e+02
7.65983437e+02
2.47462522e+03
1.24156297e+03
1.42020094e+03
1.53664788e+03
5.38820134e+02
7.36823420e+02
1.35529822e+03
1.96295506e+03
2.37762281e+03
2.12850810e+03
1.40371599e+03
7.58347152e+02
1.29493962e+03
7.63789515e+02
1.14217342e+03
2.06363171e+03
2.61936837e+03
2.27269161e+03
2.31482279e+03
2.71798002e+03
9.57568161e+02
1.20960564e+03
2.04736063e+03
7.57703278e+02
1.42699942e+03
1.42760679e+03
1.62587171e+03
1.66678170e+03
2.62101267e+03
1.45249026e+03
1.50791648e+03
1.23514826e+03
1.87267416e+03
1.62645742e+03
0.00000000e+00
9.64849869e+02
1.64327522e+03
9.80956165e+02
1.76237865e+03
1.17663111e+03
2.13175590e+03
1.53498566e+03
1.44433277e+03
6.24082641e+02
8.29393483e+02
2.08629302e+03
2.08906644e+03
1.36789752e+03
2.26294892e+03
1.85305306e+03
1.58448891e+03
1.92615339e+03
1.55889149e+03
1.88966900e+03
1.58646378e+03
0.00000000e+00
1.49787484e+03
1.09983818e+03
1.25480385e+03
2.10999241e+03
2.20013591e+03
1.29020645e+03
1.87798346e+03
1.01188067e+03
1.68980713e+03
1.96080795e+03
1.23491470e+03
1.00664498e+03
2.47745434e+03
1.46654011e+03
1.43129841e+03
1.81904160e+03
1.50721193e+03
2.53050897e+03
2.09666294e+03
1.26669107e+03
1.10105469e+03
1.44332165e+03
1.19571443e+03
1.51954040e+03
2.55295125e+03
1.66641026e+03
1.43500051e+03
2.20315747e+03
8.06008233e+02
2.30287977e+03
8.28077947e+02
1.69458526e+03
9.07185858e+02
9.71805564e+02
2.53717159e+03
2.14692964e+03
1.77436596e+03
1.36585690e+03
1.87034573e+03
1.56224439e+03
1.02679815e+03
1.03898382e+03
1.59597693e+03
1.56112828e+03
1.82125152e+03
1.43847059e+03
1.39922627e+03
1.39857778e+03
1.80417774e+03
1.52467127e+03
2.60638372e+03
1.29598324e+03
7.75822320e+02
1.11373051e+03
1.26548419e+03
2.32117242e+03
1.68324596e+03
2.36986576e+03
2.73909454e+03
1.58432078e+03
1.30737799e+03
9.64681298e+02
1.14292325e+03
1.06735874e+03
2.71573266e+03
2.36231823e+03
2.30492373e+03
2.05720544e+03
5.11451840e+02
0.00000000e+00
1.37497843e+03
2.41028741e+03
2.67489119e+03
1.88884395e+03
2.29270072e+03
2.47792421e+03
2.73837199e+03
1.40077672e+03
2.53012391e+03
2.52225455e+03
2.28567486e+03
1.10860353e+03
9.44459694e+02
1.14022044e+03
0.00000000e+00
1.26899353e+03
1.20409324e+03
2.22432508e+03
1.96881894e+03
2.69479567e+03
1.54324140e+03
1.82108622e+03
1.38788062e+03
2.50390800e+03
1.75850992e+03
1.92088235e+03
1.02452070e+03
2.21198471e+03
1.28968982e+03
1.91290013e+03
1.99132312e+03
1.49002664e+03
0.00000000e+00
0.00000000e+00
1.00295712e+03
8.19510484e+02
2.41217770e+03
8.22133585e+02
2.42860977e+03
2.60780920e+03
2.61819973e+03
9.84827311e+02
8.37871546e+02
1.92977399e+03
9.47880393e+02
1.22767198e+03
1.97194776e+03
1.47554598e+03
2.02300718e+03
1.53006990e+03
1.52641282e+03
1.35442664e+03
1.57828067e+03
1.16081732e+03
1.18968498e+03
0.00000000e+00
7.16444088e+02
2.20533097e+03
9.65660086e+02
2.28930102e+03
1.30191341e+03
1.76989177e+03
1.40434149e+03
2.58427079e+03
2.43964942e+03
1.89653783e+03
2.70271150e+03
9.21296020e+02
2.51267732e+03
2.24248047e+03
1.39232719e+03
2.23506624e+03
1.11229135e+03
1.86069986e+03
1.20165826e+03
0.00000000e+00
0.00000000e+00
0.00000000e+00
2.46993042e+03
1.11938724e+03
2.18518417e+03
9.20526309e+02
1.73478974e+03
1.50166768e+03
2.73686594e+03
1.09711367e+03
1.24805930e+03
1.56746064e+03
1.48579743e+03
1.18291511e+03
1.66841906e+03
1.63557337e+03
1.54963201e+03
1.55361648e+03
1.98142313e+03
1.04966735e+03
0.00000000e+00
0.00000000e+00
0.00000000e+00
1.64674045e+03
1.26796794e+03
1.43513926e+03
1.13652379e+03
1.82492215e+03
2.62998618e+03
1.31633478e+03
2.48591531e+03
1.65984140e+03
2.32835502e+03
1.39894208e+03
2.56663599e+03
1.10930772e+03
2.23049980e+03
1.63524129e+03
1.59025021e+03
1.60399597e+03
1.13964736e+03
0.00000000e+00
0.00000000e+00
0.00000000e+00
2.37057327e+03
1.43137391e+03
1.86793025e+03
1.65766779e+03
1.79522548e+03
1.79784882e+03
1.75276649e+03
2.16949662e+03
8.38906529e+02
2.34781306e+03
2.20501082e+03
2.74415543e+03
9.89293130e+02
1.26205689e+03
1.93764289e+03
2.05436272e+03
1.12943205e+03
0.00000000e+00
0.00000000e+00
8.66895803e+02
2.24959696e+03
2.32703293e+03
1.90394228e+03
2.58454145e+03
2.35449621e+03
1.40269962e+03
9.97851719e+02
2.24780619e+03
2.00085316e+03
1.71200562e+03
2.45721485e+03
1.22996886e+03
1.16902556e+03
2.69694994e+03
2.59079845e+03
1.51360767e+03
2.09588586e+03
2.36298224e+03
8.92299070e+02
0.00000000e+00
0.00000000e+00
1.75158555e+03
2.61082414e+03
1.96912116e+03
1.86137478e+03
1.57893349e+03
2.59605660e+03
1.42479364e+03
2.63335437e+03
1.97867575e+03
8.97455551e+02
2.10449369e+03
1.90693777e+03
1.63970925e+03
2.02566055e+03
2.20046664e+03
2.06294220e+03
2.06170709e+03
1.63862847e+03
8.85803825e+02
7.11713159e+02
0.00000000e+00
2.49450850e+03
1.02739888e+03
2.24946407e+03
1.44074072e+03
1.36038800e+03
1.38765382e+03
1.48670781e+03
1.91215189e+03
2.50623381e+03
1.15457180e+03
1.67277639e+03
1.24680475e+03
1.52181781e+03
1.68231885e+03
1.65387666e+03
1.65914904e+03
2.50168518e+03
1.80123752e+03
1.62099248e+03
0.00000000e+00
7.63650426e+02
1.32783441e+03
1.78429622e+03
1.32426158e+03
1.31156149e+03
2.39005742e+03
2.48799198e+03
1.75489871e+03
1.25659580e+03
1.07799540e+03
1.41039706e+03
1.26717709e+03
1.02377462e+03
1.36876289e+03
1.88977039e+03
2.44154278e+03
2.48406807e+03
2.28517613e+03
2.11404601e+03
1.13895112e+03
0.00000000e+00
7.38435917e+02
1.31212019e+03
2.34658102e+03
1.99883856e+03
1.64424220e+03
1.67500617e+03
1.51160514e+03
2.13765847e+03
1.66252711e+03
1.90885018e+03
1.35889956e+03
2.32066101e+03
1.76802207e+03
1.47178019e+03
1.59887675e+03
2.40063980e+03
2.61533332e+03
2.47442613e+03
1.63476469e+03
2.06488814e+03
0.00000000e+00
0.00000000e+00
1.20657465e+03
1.25375310e+03
1.98674224e+03
2.36158925e+03
2.05031526e+03
1.41447705e+03
1.18962147e+03
1.38887105e+03
1.35709719e+03
1.38892980e+03
1.18291669e+03
1.46701933e+03
1.24751673e+03
1.45955652e+03
8.96935933e+02
1.72768115e+03
7.40775820e+02
2.31834139e+03
1.07329241e+03
0.00000000e+00
7.44728740e+02
0.00000000e+00
9.64253059e+02
1.14198070e+03
1.10330691e+03
8.39180999e+02
0.00000000e+00
8.71911979e+02
0.00000000e+00
0.00000000e+00
1.12299244e+03
0.00000000e+00
9.58504523e+02
0.00000000e+00
0.00000000e+00
0.00000000e+00
0.00000000e+00
6.82548918e+02
0.00000000e+00
0.00000000e+00
0.00000000e+00
7.27239057e+02
7.72603376e+02
8.13791913e+02
2.40688806e+03
1.16170961e+03
1.54937960e+03