# vtk DataFile Version 3.0
MPS 3D Simulation Step 2000
ASCII
DATASET UNSTRUCTURED_GRID
POINTS 20213 double
-1.17246234e-03 2.61817472e-04 -1.15131520e-03
-1.06977880e-03 2.21590886e-04 -1.24092411e-03
-9.92656560e-04 2.85881930e-04 -1.32168839e-03
-9.42932956e-04 3.32560434e-04 -1.36225924e-03
-8.05505808e-04 2.40706202e-04 -1.42335668e-03
-6.65692949e-04 2.57131922e-04 -1.49530756e-03
-4.97015160e-04 2.67928024e-04 -1.55752833e-03
-4.20799228e-04 2.16500618e-04 -1.55938191e-03
-3.68999226e-04 1.50398549e-04 -1.54093707e-03
-1.48202156e-04 2.44598804e-04 -1.51033473e-03
9.38353463e-05 1.48028048e-04 -1.58571947e-03
-1.08802104e-04 1.18691549e-04 -1.57183382e-03
1.71530549e-05 1.31595842e-04 -1.57654983e-03
1.76238706e-04 1.74566179e-04 -1.58990985e-03
3.38812712e-04 1.56372601e-04 -1.53644742e-03
6.84366266e-04 1.97143693e-04 -1.45350035e-03
6.46040682e-04 1.30261893e-04 -1.42973885e-03
8.10859509e-04 1.73387385e-04 -1.37509099e-03
9.71554284e-04 1.65848806e-04 -1.26902686e-03
1.01858800e-03 1.44378649e-04 -1.21181378e-03
1.16368298e-03 1.93418004e-04 -1.12327035e-03
-1.11901161e-03 2.26266996e-04 -1.19378787e-03
-1.05480735e-03 3.04382193e-04 -1.27238679e-03
-1.01144808e-03 3.69803247e-04 -1.31304864e-03
-7.54110499e-04 2.89335145e-04 -1.46209860e-03
-7.46730456e-04 4.08399832e-04 -1.46183540e-03
-7.02654799e-04 3.37078797e-04 -1.49290858e-03
-6.30850852e-04 3.31290673e-04 -1.52625881e-03
-4.23177673e-04 3.02351639e-04 -1.58088636e-03
-2.54944773e-04 2.22490285e-04 -1.59968737e-03
-1.79993094e-04 1.93713683e-04 -1.60230757e-03
-2.12449402e-05 1.97190639e-04 -1.61016837e-03
2.20411789e-04 2.47914102e-04 -1.60677546e-03
5.07018673e-04 1.66079380e-04 -1.52036491e-03
4.85719841e-04 2.51661944e-04 -1.55778225e-03
5.55845715e-04 2.22119817e-04 -1.52658343e-03
6.25561193e-04 2.38329889e-04 -1.50381534e-03
6.99382805e-04 2.78883213e-04 -1.48427625e-03
7.36095717e-04 1.40061141e-04 -1.38293071e-03
7.62367048e-04 2.14533101e-04 -1.42313349e-03
9.03386356e-04 2.41947534e-04 -1.35793430e-03
1.17957677e-03 2.61705849e-04 -1.14143132e-03
-1.11943391e-03 3.07881204e-04 -1.21367472e-03
-1.07983223e-03 3.92727807e-04 -1.25282079e-03
-1.03191624e-03 4.46476652e-04 -1.28788726e-03
-8.68844173e-04 2.93757568e-04 -1.39949921e-03
-8.00059292e-04 3.44693484e-04 -1.44074208e-03
-6.64076634e-04 4.06569909e-04 -1.50844316e-03
-4.90759480e-04 3.56850117e-04 -1.57101515e-03
-5.61826277e-04 3.24634188e-04 -1.55177231e-03
-3.58706915e-04 3.66600161e-04 -1.59965175e-03
-2.15195884e-04 2.88143400e-04 -1.62078310e-03
-5.27210382e-05 3.45251529e-04 -1.63442826e-03
2.85094790e-04 2.94056874e-04 -1.61125049e-03
3.56931159e-04 2.90530670e-04 -1.60106273e-03
5.70149450e-04 3.08081471e-04 -1.54630094e-03
3.99839778e-04 2.42596623e-04 -1.57540219e-03
6.99147001e-04 3.60565843e-04 -1.49911135e-03
7.71798486e-04 3.72326386e-04 -1.46249039e-03
7.65611574e-04 2.88820925e-04 -1.45203182e-03
8.39993962e-04 2.44448401e-04 -1.39889488e-03
9.60865707e-04 2.30391515e-04 -1.31187196e-03
1.04369658e-03 2.18612982e-04 -1.24341321e-03
-1.20478983e-03 4.21579242e-04 -1.12505938e-03
-1.14100688e-03 3.80455250e-04 -1.20148829e-03
-9.51704397e-04 4.13927911e-04 -1.34859788e-03
-8.23537503e-04 4.30380300e-04 -1.41990266e-03
-6.34782524e-04 4.76883603e-04 -1.50894819e-03
-5.77921213e-04 4.05507759e-04 -1.54223016e-03
-4.26555626e-04 4.07496148e-04 -1.58102368e-03
-2.80100010e-04 3.28261062e-04 -1.61474707e-03
-2.07940974e-04 3.79623296e-04 -1.62378532e-03
-1.43262277e-04 2.56440393e-04 -1.62344427e-03
3.38899196e-05 3.76625423e-04 -1.63542851e-03
5.74792478e-05 2.15049337e-04 -1.61414867e-03
1.82309519e-04 3.17766216e-04 -1.62748722e-03
2.56487443e-04 3.69391506e-04 -1.62541808e-03
4.27081297e-04 3.41669803e-04 -1.59168491e-03
6.39991146e-04 3.16398680e-04 -1.52285314e-03
6.29813386e-04 3.97324220e-04 -1.52593817e-03
9.06991981e-04 3.21792373e-04 -1.38110874e-03
9.70734371e-04 3.10641044e-04 -1.33631789e-03
1.02839975e-03 2.84906036e-04 -1.28411149e-03
1.09124992e-03 3.29554367e-04 -1.24454184e-03
-1.20356690e-03 5.08607792e-04 -1.09621621e-03
-9.77168027e-04 4.89910958e-04 -1.31356146e-03
-8.76770927e-04 3.71835888e-04 -1.39821592e-03
-7.06974328e-04 4.88014943e-04 -1.46811529e-03
-5.60560213e-04 4.99064561e-04 -1.52671724e-03
-5.04765361e-04 4.41002857e-04 -1.55817520e-03
-2.81263653e-04 4.15234747e-04 -1.60861223e-03
-1.83983049e-04 4.55027883e-04 -1.61293060e-03
-1.38816160e-04 3.37917076e-04 -1.63222473e-03
-2.25380704e-05 4.35563999e-04 -1.62728233e-03
6.01638507e-05 4.62214170e-04 -1.62483370e-03
1.00911924e-04 3.07273839e-04 -1.63121419e-03
1.95005143e-04 4.12344405e-04 -1.62803879e-03
3.38140018e-04 4.97999317e-04 -1.59076183e-03
2.97912799e-04 4.36559667e-04 -1.61282923e-03
4.97077203e-04 3.25020357e-04 -1.57408309e-03
5.48074767e-04 3.87399567e-04 -1.55633416e-03
8.36885708e-04 3.22032934e-04 -1.42083126e-03
9.65273979e-04 3.91504594e-04 -1.34553759e-03
1.03244836e-03 3.65809858e-04 -1.29814046e-03
1.08104605e-03 4.15948889e-04 -1.25319422e-03
-1.19925168e-03 5.84064167e-04 -1.06417955e-03
-1.09111269e-03 4.78253574e-04 -1.22346829e-03
-9.14351547e-04 5.24297784e-04 -1.33878614e-03
-8.89425268e-04 4.57964562e-04 -1.37586247e-03
-6.24811761e-04 5.52446741e-04 -1.48566160e-03
-3.34430166e-04 5.43542357e-04 -1.56493586e-03
-3.48195155e-04 4.60245044e-04 -1.58628805e-03
-2.65002492e-04 4.95495651e-04 -1.59174910e-03
-1.06017671e-04 4.15373474e-04 -1.62517080e-03
-9.20887891e-05 4.99413332e-04 -1.60538320e-03
-7.57343046e-06 5.18018246e-04 -1.60556846e-03
1.16678663e-04 3.88919716e-04 -1.63436914e-03
2.29744538e-04 4.85042565e-04 -1.60750833e-03
3.96840113e-04 4.31321018e-04 -1.59278970e-03
3.48230790e-04 3.69755934e-04 -1.61102813e-03
5.02668741e-04 4.95789493e-04 -1.54694665e-03
5.77957596e-04 4.60077405e-04 -1.53327808e-03
7.20844423e-04 4.36977597e-04 -1.48146519e-03
8.99650094e-04 4.03536622e-04 -1.38838043e-03
1.01180181e-03 4.53185581e-04 -1.30284642e-03
1.14356798e-03 3.97701371e-04 -1.19891688e-03
-1.14646184e-03 5.24773081e-04 -1.14854322e-03
-1.15051057e-03 4.48502886e-04 -1.17747734e-03
-9.70261392e-04 5.74514617e-04 -1.27843095e-03
-7.77033373e-04 4.95436773e-04 -1.42574396e-03
-6.95379581e-04 5.68657620e-04 -1.44710946e-03
-4.85248226e-04 5.27935788e-04 -1.53744856e-03
-2.46321869e-04 5.79380886e-04 -1.56371407e-03
-1.83340075e-04 5.29274759e-04 -1.59247838e-03
-1.36278879e-04 5.87089937e-04 -1.57776591e-03
-5.78820631e-05 5.82829025e-04 -1.58244412e-03
7.80251837e-05 5.37894672e-04 -1.59970145e-03
1.39056109e-04 4.76354838e-04 -1.61803470e-03
2.70259044e-04 5.53107516e-04 -1.57850417e-03
3.50773065e-04 5.75114002e-04 -1.55762103e-03
4.20344384e-04 5.05834181e-04 -1.56721614e-03
6.54640944e-04 4.80047315e-04 -1.49488175e-03
7.24706433e-04 5.20633555e-04 -1.44803800e-03
8.31295104e-04 4.07119578e-04 -1.42616239e-03
7.88776561e-04 4.72777489e-04 -1.43265734e-03
1.11437960e-03 4.80711545e-04 -1.21280245e-03
1.08041300e-03 5.58066503e-04 -1.21423140e-03
-1.17623806e-03 6.59603556e-04 -1.04501673e-03
-1.08909969e-03 5.61471986e-04 -1.18918111e-03
-1.03301238e-03 5.30901600e-04 -1.25225658e-03
-8.36786343e-04 5.36127328e-04 -1.37556626e-03
-5.51162772e-04 5.86739912e-04 -1.49522666e-03
-4.03805133e-04 5.74282435e-04 -1.53744367e-03
-3.18372662e-04 6.21316466e-04 -1.53445712e-03
-1.89888705e-04 6.40305534e-04 -1.54688398e-03
-9.18678455e-05 6.54562640e-04 -1.55220899e-03
2.15584942e-05 6.02295314e-04 -1.57502151e-03
1.11909278e-04 6.08922933e-04 -1.56876251e-03
1.73174302e-04 5.46045455e-04 -1.59047900e-03
2.88279020e-04 6.31709842e-04 -1.54223049e-03
4.28977704e-04 5.81487726e-04 -1.53698244e-03
5.08161485e-04 5.73285138e-04 -1.51582508e-03
5.83529150e-04 5.40082185e-04 -1.49981021e-03
6.50320366e-04 5.65516188e-04 -1.45612850e-03
8.09701574e-04 5.53941993e-04 -1.38720647e-03
9.41054995e-04 4.76936733e-04 -1.34759373e-03
1.04060480e-03 5.12181390e-04 -1.26364697e-03
1.11895683e-03 6.54835344e-04 -1.12958454e-03
-1.13703253e-03 6.09629670e-04 -1.11815351e-03
-1.07390488e-03 6.45984097e-04 -1.16175357e-03
-1.02506905e-03 6.11493928e-04 -1.21781447e-03
-6.84078242e-04 6.42295200e-04 -1.41407674e-03
-6.15717569e-04 6.30681601e-04 -1.45453716e-03
-4.70660947e-04 6.13410914e-04 -1.50245128e-03
-3.82151517e-04 6.57678487e-04 -1.49942159e-03
-2.58357270e-04 6.72774488e-04 -1.51984527e-03
-1.50201911e-04 7.07550599e-04 -1.51953124e-03
-1.40193891e-05 6.76715694e-04 -1.54257146e-03
6.66997729e-05 6.74451600e-04 -1.54307596e-03
2.01345936e-04 6.18127287e-04 -1.55428164e-03
2.46193255e-04 7.00144145e-04 -1.51466901e-03
3.65644355e-04 6.54213384e-04 -1.52004547e-03
4.41272796e-04 6.56794980e-04 -1.50101477e-03
5.89471922e-04 6.24039451e-04 -1.46036227e-03
5.80947863e-04 6.96768171e-04 -1.42531033e-03
7.27970853e-04 5.92569787e-04 -1.40935686e-03
8.66820975e-04 4.81864649e-04 -1.38836568e-03
9.59539432e-04 5.44594431e-04 -1.31020436e-03
1.06407684e-03 6.31367137e-04 -1.18960634e-03
-1.11471188e-03 6.89456359e-04 -1.09111446e-03
-9.90585492e-04 6.95798126e-04 -1.19435811e-03
-8.98645930e-04 5.99485939e-04 -1.31223773e-03
-7.62683735e-04 5.75711075e-04 -1.40298797e-03
-6.76633456e-04 7.16467438e-04 -1.37374002e-03
-5.34369827e-04 6.63636819e-04 -1.46170712e-03
-4.50880990e-04 6.90263271e-04 -1.46398411e-03
-3.13052479e-04 7.16118521e-04 -1.48268863e-03
-2.18435444e-04 7.42069987e-04 -1.48689474e-03
-6.31739010e-05 7.36179882e-04 -1.51205041e-03
2.18236786e-05 7.50572213e-04 -1.50522078e-03
1.58431980e-04 6.84921557e-04 -1.53135455e-03
1.92320397e-04 7.58981316e-04 -1.49095365e-03
3.25155009e-04 7.16626378e-04 -1.49388848e-03
4.10019283e-04 7.26271458e-04 -1.46935959e-03
5.17565521e-04 6.44872728e-04 -1.48331053e-03
6.37257406e-04 7.35867382e-04 -1.37745032e-03
6.63959847e-04 6.46654994e-04 -1.41297244e-03
8.44147705e-04 6.17300434e-04 -1.34106234e-03
1.00504370e-03 5.88475595e-04 -1.25747181e-03
1.07485239e-03 7.26686282e-04 -1.12058306e-03
-1.04682996e-03 7.19024464e-04 -1.13655528e-03
-9.63528056e-04 7.76438813e-04 -1.16074029e-03
[...]
POINT_DATA 20213
SCALARS pressure double 1
LOOKUP_TABLE default
1.08751542e+03
1.17289259e+03
1.31931903e+03
0.00000000e+00
0.00000000e+00
0.00000000e+00
1.21375809e+03
1.29420381e+03
0.00000000e+00
1.52240927e+03
1.33606893e+03
0.00000000e+00
0.00000000e+00
1.57469637e+03
1.03980988e+03
0.00000000e+00
0.00000000e+00
0.00000000e+00
0.00000000e+00
6.59184678e+02
0.00000000e+00
0.00000000e+00
1.21196488e+03
1.37434181e+03
0.00000000e+00
1.02474922e+03
1.04760169e+03
0.00000000e+00
1.31756635e+03
1.41167125e+03
1.29205800e+03
0.00000000e+00
1.92707468e+03
0.00000000e+00
0.00000000e+00
0.00000000e+00
0.00000000e+00
0.00000000e+00
7.57654587e+02
9.34515061e+02
1.12730865e+03
0.00000000e+00
0.00000000e+00
1.13384086e+03
1.23676976e+03
1.09812515e+03
0.00000000e+00
9.64235911e+02
0.00000000e+00
0.00000000e+00
1.35396421e+03
0.00000000e+00
1.58154517e+03
1.92315926e+03
1.56982907e+03
8.23415807e+02
0.00000000e+00
0.00000000e+00
0.00000000e+00
9.68920631e+02
1.09727812e+03
0.00000000e+00
0.00000000e+00
7.93880140e+02
0.00000000e+00
1.37192243e+03
0.00000000e+00
0.00000000e+00
0.00000000e+00
0.00000000e+00
0.00000000e+00
1.44051829e+03
0.00000000e+00
0.00000000e+00
1.53908933e+03
2.10636664e+03
2.10971823e+03
1.33564620e+03
7.59351820e+02
0.00000000e+00
0.00000000e+00
0.00000000e+00
0.00000000e+00
0.00000000e+00
7.69616494e+02
1.02631088e+03
1.20125135e+03
1.25436701e+03
1.25599668e+03
1.06009373e+03
1.36725994e+03
1.42885030e+03
1.54815763e+03
0.00000000e+00
1.89644490e+03
2.10491252e+03
2.09540225e+03
1.89086728e+03
2.09103169e+03
0.00000000e+00
1.02453122e+03
1.09329250e+03
8.57672698e+02
0.00000000e+00
0.00000000e+00
0.00000000e+00
0.00000000e+00
0.00000000e+00
1.14893634e+03
1.36858621e+03
0.00000000e+00
1.08390201e+03
0.00000000e+00
1.58445275e+03
1.53993736e+03
1.65025942e+03
1.98962597e+03
2.03588331e+03
1.73118923e+03
1.84712556e+03
1.37802474e+03
0.00000000e+00
0.00000000e+00
1.12945625e+03
0.00000000e+00
0.00000000e+00
7.57948766e+02
0.00000000e+00
8.31775541e+02
1.13296703e+03
1.39743818e+03
0.00000000e+00
0.00000000e+00
1.28095556e+03
1.32338420e+03
1.52141736e+03
1.80387781e+03
2.10466451e+03
1.86044508e+03
1.75823026e+03
1.71726212e+03
1.01187078e+03
0.00000000e+00
1.19511944e+03
0.00000000e+00
0.00000000e+00
9.71871739e+02
6.37673292e+02
8.35104934e+02
0.00000000e+00
0.00000000e+00
1.33067113e+03
0.00000000e+00
0.00000000e+00
1.02698941e+03
0.00000000e+00
1.52392178e+03
0.00000000e+00
1.84708203e+03
1.76008939e+03
1.50775957e+03
1.39275584e+03
1.17541557e+03
9.49089631e+02
9.12717095e+02
1.04834744e+03
0.00000000e+00
8.70666370e+02
0.00000000e+00
0.00000000e+00
0.00000000e+00
1.26236442e+03
0.00000000e+00
1.01725740e+03
0.00000000e+00
0.00000000e+00
1.12331065e+03
1.40386802e+03
0.00000000e+00
1.73723344e+03
1.84251702e+03
0.00000000e+00
0.00000000e+00
0.00000000e+00
0.00000000e+00
9.09441766e+02
1.02221862e+03
1.02868394e+03
9.28241004e+02
0.00000000e+00
6.51140868e+02
8.68219363e+02
1.14249568e+03
1.18880087e+03
1.30922946e+03
0.00000000e+00
0.00000000e+00
0.00000000e+00
0.00000000e+00
0.00000000e+00
1.65725007e+03
1.84657879e+03
1.68445608e+03
1.54279563e+03
0.00000000e+00
1.11753600e+03
0.00000000e+00
8.72979328e+02
9.84226209e+02
0.00000000e+00
0.00000000e+00
0.00000000e+00
1.20777545e+03
9.94670066e+02
1.27035174e+03
1.22631301e+03
0.00000000e+00
0.00000000e+00
1.04610657e+03
1.23634905e+03
1.66803655e+03
1.42359977e+03
1.47450692e+03
1.82012075e+03
1.75894701e+03
0.00000000e+00
1.38207213e+03
9.06895826e+02
0.00000000e+00
0.00000000e+00
7.94295137e+02
0.00000000e+00
5.01238196e+02
0.00000000e+00
0.00000000e+00
1.09551352e+03
1.05948559e+03
8.51220940e+02
0.00000000e+00
0.00000000e+00
1.16151040e+03
1.39268381e+03
0.00000000e+00
1.80375671e+03
1.76770358e+03
1.60071372e+03
1.42027665e+03
1.03257286e+03
9.32446653e+02
0.00000000e+00
0.00000000e+00
0.00000000e+00
0.00000000e+00
5.26383357e+02
7.55865813e+02
0.00000000e+00
0.00000000e+00
1.01706079e+03
0.00000000e+00
0.00000000e+00
0.00000000e+00
1.58381225e+03
1.55178933e+03
1.74798843e+03
1.88809527e+03
1.68168891e+03
1.57964292e+03
1.50328998e+03
1.26865088e+03
0.00000000e+00
0.00000000e+00
0.00000000e+00
0.00000000e+00
0.00000000e+00
0.00000000e+00
0.00000000e+00
0.00000000e+00
0.00000000e+00
8.68242790e+02
8.48982280e+02
0.00000000e+00
1.51120620e+03
1.53871588e+03
1.69487289e+03
1.87116668e+03
1.69878582e+03
0.00000000e+00
1.55168107e+03
1.45027028e+03
1.46492169e+03
1.07066275e+03
0.00000000e+00
0.00000000e+00
0.00000000e+00
0.00000000e+00
7.12953875e+02
7.73866418e+02
9.24577501e+02
8.46170705e+02
0.00000000e+00
0.00000000e+00
1.04982911e+03
0.00000000e+00
1.36902254e+03
1.71448548e+03
1.56561411e+03
1.73620944e+03
1.22204799e+03
1.27954610e+03
0.00000000e+00
1.42445076e+03
1.25956201e+03
1.02923460e+03
0.00000000e+00
0.00000000e+00
0.00000000e+00
5.45596345e+02
0.00000000e+00
8.63245348e+02
9.46210823e+02
9.98747823e+02
1.19530606e+03
1.12551400e+03
0.00000000e+00
0.00000000e+00
1.54596324e+03
1.67936935e+03
0.00000000e+00
0.00000000e+00
0.00000000e+00
0.00000000e+00
1.38497342e+03
0.00000000e+00
1.00601950e+03
7.17261888e+02
6.13123535e+02
0.00000000e+00
0.00000000e+00
0.00000000e+00
8.55998827e+02
0.00000000e+00
1.05862902e+03
1.30803176e+03
1.26257208e+03
0.00000000e+00
0.00000000e+00
1.42532574e+03
1.51313251e+03
1.26792818e+03
0.00000000e+00
0.00000000e+00
1.23255025e+03
1.31501776e+03
0.00000000e+00
1.04421337e+03
9.98278461e+02
0.00000000e+00
0.00000000e+00
7.00076683e+02
9.69875931e+02
0.00000000e+00
0.00000000e+00
0.00000000e+00
9.07186294e+02
1.43149440e+03
1.43242909e+03
1.38762425e+03
1.32329059e+03
1.23012194e+03
0.00000000e+00
0.00000000e+00
1.11402870e+03
1.23024359e+03
1.30401383e+03
0.00000000e+00
1.15215034e+03
8.81195814e+02
8.45836994e+02
0.00000000e+00
0.00000000e+00
0.00000000e+00
1.21271753e+03
9.33683719e+02
8.38923079e+02
1.11750598e+03
0.00000000e+00
1.19620106e+03
1.34966310e+03
1.25065338e+03
0.00000000e+00
0.00000000e+00
9.14449775e+02
1.02116794e+03
1.12812697e+03
1.16500997e+03
9.77757095e+02
7.41516698e+02
6.77584885e+02
0.00000000e+00
8.74588923e+02
0.00000000e+00
1.26242474e+03
1.28235260e+03
0.00000000e+00
9.94689919e+02
0.00000000e+00
1.07727890e+03
1.11957583e+03
7.89445565e+02
0.00000000e+00
6.77285813e+02
0.00000000e+00
7.86761739e+02
9.27504892e+02
8.97318829e+02
0.00000000e+00
9.46327013e+02
0.00000000e+00
0.00000000e+00
0.00000000e+00
0.00000000e+00
1.21519487e+03
1.22563447e+03
1.36496814e+03
1.22776394e+03
0.00000000e+00
7.97693058e+02
9.78371176e+02
0.00000000e+00
0.00000000e+00
0.00000000e+00
0.00000000e+00
0.00000000e+00
0.00000000e+00
8.12113206e+02
8.10714672e+02
0.00000000e+00
0.00000000e+00
0.00000000e+00
0.00000000e+00
0.00000000e+00
1.34034741e+03
1.15186723e+03
0.00000000e+00
1.34938774e+03
1.31528645e+03
0.00000000e+00
1.02816066e+03
0.00000000e+00
1.42172619e+03
1.41363666e+03
1.57652566e+03
1.90272254e+03
0.00000000e+00
9.68841005e+02
1.22136480e+03
1.18110329e+03
8.54491497e+02
9.53963599e+02
9.81023847e+02
0.00000000e+00
5.48537721e+02
1.19535168e+03
1.47280991e+03
9.80044397e+02
1.06384174e+03
1.24793992e+03
1.38550842e+03
1.27693638e+03
1.69367720e+03
1.56456166e+03
1.76024610e+03
1.65315632e+03
1.80349257e+03
1.63264939e+03
1.66252764e+03
1.56830150e+03
1.21984158e+03
1.09823450e+03
1.10248324e+03
1.18386683e+03
1.11484755e+03
0.00000000e+00
0.00000000e+00
1.06322932e+03
9.11235792e+02
1.32994947e+03
1.50217870e+03
1.32179504e+03
1.39837610e+03
1.44898221e+03
1.17373506e+03
1.28936553e+03
1.47134968e+03
1.72336604e+03
1.92075000e+03
0.00000000e+00
1.28646805e+03
1.16143651e+03
1.49688436e+03
1.08444191e+03
1.20232588e+03
1.06860853e+03
8.23775656e+02
0.00000000e+00
9.20358115e+02
1.28258613e+03
1.38109771e+03
1.37851047e+03
1.55755261e+03
1.22996046e+03
1.33147758e+03
1.67865004e+03
1.63022993e+03
1.62009459e+03
1.67883105e+03
1.85976455e+03
1.81157645e+03
1.83439645e+03
1.28375051e+03
1.22708172e+03
1.56751333e+03
1.15520466e+03
1.08576955e+03
0.00000000e+00
1.12145711e+03
8.39856742e+02
1.60788213e+03
1.36151509e+03
1.43368243e+03
1.36245037e+03
1.38749726e+03
1.43182202e+03
1.57307777e+03
1.74979030e+03
1.76251900e+03
1.60225487e+03
1.66664882e+03
1.61869904e+03
1.57150699e+03
1.42447836e+03
1.70427967e+03
1.13772391e+03
1.20753302e+03
1.06228861e+03
0.00000000e+00
1.03584407e+03
1.17279887e+03
8.15520574e+02
1.09819676e+03
1.35335699e+03
8.74873204e+02
1.43722755e+03
1.06442158e+03
1.23361428e+03
1.61495528e+03
1.63339801e+03
1.82764665e+03
1.66016165e+03
1.69454566e+03
1.67479069e+03
0.00000000e+00
1.55807349e+03
1.09456922e+03
1.02759142e+03
1.09004675e+03
0.00000000e+00
0.00000000e+00
1.10666812e+03
9.66701403e+02
1.17565933e+03
1.26918046e+03
1.30150963e+03
1.36851603e+03
1.29941343e+03
1.05439870e+03
1.71137664e+03
1.68272535e+03
1.70252769e+03
1.55465654e+03
1.74185627e+03
1.40034048e+03
1.20768006e+03
1.33710345e+03
9.50231088e+02
9.46257841e+02
9.21675717e+02
0.00000000e+00
7.26026757e+02
6.56194128e+02
0.00000000e+00
1.23106299e+03
1.28464096e+03
1.39771877e+03
9.85268838e+02
1.55863791e+03
1.67748814e+03
1.57894931e+03
1.59306594e+03
1.74668397e+03
1.57670173e+03
1.78002440e+03
1.66916951e+03
1.36834844e+03
1.14059594e+03
8.23724620e+02
1.04858461e+03
7.92926839e+02
9.78806442e+02
6.30069035e+02
8.89003599e+02
0.00000000e+00
1.47728319e+03
1.32772630e+03
1.18496080e+03
1.26096336e+03
1.29838056e+03
1.76556397e+03
1.67954833e+03
1.46592546e+03
1.64433496e+03
1.53186312e+03
1.66268019e+03
1.53502935e+03
1.18367792e+03
1.53124211e+03
1.34748198e+03
9.47393807e+02
1.03843945e+03
1.00559761e+03
0.00000000e+00
9.22096255e+02
1.04448541e+03
1.02846403e+03
1.28214274e+03
9.94162427e+02
1.08160315e+03
1.30107958e+03
1.32834695e+03
1.28509332e+03
1.52064703e+03
1.72081659e+03
1.70889713e+03
1.84950614e+03
1.83151330e+03
1.73178791e+03
1.02240482e+03
1.24172479e+03
0.00000000e+00
8.10755582e+02
9.45604863e+02
0.00000000e+00
9.32791442e+02
0.00000000e+00
1.12220503e+03
1.10129166e+03
1.09070851e+03
1.10913815e+03
1.48004038e+03
1.30843429e+03
1.61777458e+03
1.74642882e+03
1.58679338e+03
1.63762989e+03
1.60814114e+03
1.59510786e+03
1.43344672e+03
1.37888573e+03
1.51401140e+03
0.00000000e+00
1.06077156e+03
7.65382337e+02
0.00000000e+00
6.15662806e+02
8.40211952e+02
8.82782129e+02
1.00267836e+03
1.06750644e+03
1.06609817e+03
1.55611242e+03
1.36669708e+03
1.65224869e+03
1.54437672e+03
1.80540740e+03
1.67885812e+03
1.81196166e+03
1.61532615e+03
1.48260469e+03
1.25394674e+03
1.02059730e+03
0.00000000e+00
7.89564800e+02
0.00000000e+00
0.00000000e+00
1.14572950e+03
0.00000000e+00
1.14204531e+03
1.36234901e+03
1.04400880e+03
1.20107061e+03
1.38002309e+03
1.69947727e+03
1.54811851e+03
1.55135564e+03
1.53517961e+03
1.65146912e+03
1.50563457e+03
1.51691492e+03
1.46431854e+03
1.47692120e+03
1.28998708e+03
0.00000000e+00
1.12841488e+03
0.00000000e+00
0.00000000e+00
6.44601016e+02
0.00000000e+00
1.15289933e+03
1.01011461e+03
1.10106516e+03
1.09429559e+03
1.14042886e+03
1.53107009e+03
1.41444418e+03
1.71917270e+03
1.67292510e+03
1.58572081e+03
1.81950667e+03
1.60008464e+03
1.28738243e+03
1.44841503e+03
1.30215442e+03
0.00000000e+00
7.69450067e+02
0.00000000e+00
0.00000000e+00
7.86822112e+02
9.26873726e+02
9.24675986e+02
1.17829324e+03
1.02767013e+03
1.37360541e+03
1.52589307e+03
1.40095563e+03
1.58569280e+03
1.51496858e+03
1.58656015e+03
1.40878644e+03
1.70764071e+03
1.43481244e+03
1.39701145e+03
1.36263277e+03
1.25464851e+03
9.66402747e+02
7.93012462e+02
0.00000000e+00
0.00000000e+00
9.81234739e+02
9.59620873e+02
9.71549181e+02
1.07661550e+03
0.00000000e+00
1.27752383e+03
1.41529289e+03
1.40064917e+03
1.44843387e+03
1.47649291e+03
1.45321194e+03
1.18605021e+03
1.18544251e+03
1.15893270e+03
1.30548582e+03
1.38572361e+03
1.14924419e+03
9.03442385e+02
7.07054844e+02
0.00000000e+00
8.64541174e+02
1.13604022e+03
1.35604792e+03
1.16587825e+03
1.33849221e+03
1.17230858e+03
1.36628172e+03
1.45223760e+03
1.31824482e+03
1.38492034e+03
1.12472273e+03
1.38098071e+03
1.44687263e+03
1.06292007e+03
1.28839190e+03
1.30844485e+03
1.39826609e+03
1.27680502e+03
1.13086630e+03
4.94865891e+02
0.00000000e+00
7.40599110e+02
1.09736327e+03
1.12287476e+03
1.31063579e+03
1.19485118e+03
1.09700115e+03
1.33535317e+03
1.25695644e+03
1.17351269e+03
1.27527669e+03
1.10297985e+03
9.23798103e+02
1.08613408e+03
1.23154006e+03
1.20007014e+03
1.35568196e+03
1.25313551e+03
1.25145551e+03
1.06784792e+03
7.22137305e+02
0.00000000e+00
9.78876988e+02
1.21811661e+03
1.30432059e+03
1.30808211e+03
1.26975287e+03
1.16049975e+03
1.11501609e+03
1.25469493e+03
1.19274486e+03
1.33313580e+03
0.00000000e+00
1.12679639e+03
8.00118008e+02
7.93130141e+02
1.18351957e+03
9.92282891e+02
1.01527548e+03
9.62446771e+02
6.38144665e+02
4.71873751e+02
0.00000000e+00
7.43937760e+02
1.36945173e+03
1.34008116e+03
1.37715646e+03
1.26374164e+03
1.03235962e+03
9.86404484e+02
8.50273811e+02
1.10896701e+03
6.88601095e+02
9.57229433e+02
6.89676106e+02
9.54193664e+02
6.01998672e+02
7.97812185e+02
9.85694610e+02
8.45408427e+02
6.29187357e+02
5.79314679e+02
9.58854571e+02
0.00000000e+00
0.00000000e+00
9.91079048e+02
1.31090426e+03
0.00000000e+00
1.23962992e+03
0.00000000e+00
0.00000000e+00
0.00000000e+00
7.07441160e+02
0.00000000e+00
0.00000000e+00
0.00000000e+00
0.00000000e+00
0.00000000e+00
0.00000000e+00
5.96785013e+02
0.00000000e+00
0.00000000e+00
0.00000000e+00
0.00000000e+00
0.00000000e+00
1.31444215e+03
1.26877041e+03
0.00000000e+00
1.31111287e+03
1.40142379e+03
0.00000000e+00
0.00000000e+00
1.31943648e+03
1.12542856e+03
1.29977964e+03
1.37100456e+03
1.07708687e+03
1.44727782e+03
0.00000000e+00
9.79062263e+02
0.00000000e+00
9.78027497e+02
9.59307650e+02
0.00000000e+00
0.00000000e+00
0.00000000e+00
1.34644536e+03
1.45034064e+03
1.12534195e+03
1.04326713e+03
1.22751575e+03
1.06427817e+03
1.37909948e+03
1.53398993e+03
1.59816319e+03
1.24127556e+03
1.84710838e+03
2.04049615e+03
1.64698956e+03
1.37624745e+03
1.10776857e+03
1.13185823e+03
1.20780501e+03
1.19560128e+03
1.11210070e+03
9.93190280e+02
0.00000000e+00
1.27215029e+03
8.73497080e+02
1.21757134e+03
1.33530723e+03
1.50761358e+03
1.31679543e+03
1.46353582e+03
1.50017910e+03
1.40506707e+03
1.61362490e+03
1.62405392e+03
1.54830818e+03
1.48722008e+03
1.54899166e+03
1.27946701e+03
1.24815287e+03
1.31497776e+03
1.64497252e+03
1.49231685e+03
1.07814178e+03
6.66702774e+02
0.00000000e+00
6.46524877e+02
1.41377924e+03
1.45848958e+03
1.32261073e+03
1.50955397e+03
1.41389487e+03
1.46643237e+03
1.61739662e+03
1.44678715e+03
1.70133801e+03
1.81499254e+03
1.76457621e+03
1.61252069e+03
1.62405009e+03
1.56272699e+03
1.18540068e+03
1.21043883e+03
1.50688383e+03
1.26525511e+03
0.00000000e+00
0.00000000e+00
1.48464645e+03
1.66412132e+03
1.59195153e+03
1.31045346e+03
1.35657579e+03
1.45101872e+03
1.56809332e+03
1.68545956e+03
1.64364102e+03
1.69712245e+03
1.65024035e+03
1.54633549e+03
1.61405900e+03
1.58029704e+03
1.07443716e+03
1.33198925e+03
1.35179624e+03
1.16409861e+03
1.43065392e+03
0.00000000e+00
9.42686555e+02
1.04593266e+03
1.52630825e+03
1.23211481e+03
1.28916009e+03
1.55713835e+03
1.46481536e+03
1.63608250e+03
1.57311134e+03
1.39907377e+03
1.66401847e+03
1.53249713e+03
1.54609458e+03
1.60632876e+03
1.50882986e+03
1.25727265e+03
1.50012751e+03
1.50160991e+03
1.57031796e+03
1.51242853e+03
0.00000000e+00
8.36149615e+02
8.25344047e+02
1.60467191e+03
1.39834685e+03
1.23982569e+03
1.41179430e+03
1.38330241e+03
1.36051910e+03
1.29685070e+03
1.56717474e+03
1.66875874e+03
1.66177743e+03
1.37397451e+03
1.24989662e+03
1.31901600e+03
1.62883988e+03
1.64499454e+03
1.33076735e+03
1.36225804e+03
1.13400581e+03
0.00000000e+00
0.00000000e+00
0.00000000e+00
9.85074653e+02
1.51303572e+03
1.13947439e+03
1.33913037e+03
1.23729795e+03
1.64678269e+03
1.70596351e+03
1.77628377e+03
1.68983992e+03
1.53299671e+03
1.47862905e+03
1.60797548e+03
1.48247663e+03
1.58975048e+03
1.50272555e+03
1.39108779e+03
1.29782901e+03
9.20563837e+02
0.00000000e+00
9.07448198e+02
0.00000000e+00
1.60246947e+03
8.68587074e+02
1.23580567e+03
1.69674437e+03
1.40426795e+03
1.45835623e+03
1.55497793e+03
1.69802538e+03
1.67271433e+03
1.57323250e+03
1.70579940e+03
1.53632855e+03
1.52831410e+03
1.81865454e+03
1.54728205e+03
1.15728086e+03
1.52144636e+03
9.56921668e+02
0.00000000e+00
0.00000000e+00
0.00000000e+00
1.32200354e+03
8.46107275e+02
1.16761416e+03
1.30389411e+03
1.35777011e+03
1.78251368e+03
1.73146291e+03
1.64865977e+03
1.74215266e+03
1.65645679e+03
1.58071229e+03
1.58443130e+03
1.45942563e+03
1.64662916e+03
1.00728034e+03
1.01044989e+03
1.60268984e+03
0.00000000e+00
7.53859864e+02
0.00000000e+00
0.00000000e+00
1.19808457e+03
7.16316206e+02
1.36765304e+03
1.36039076e+03
1.20398800e+03
1.22624787e+03
1.58083518e+03
1.50439035e+03
1.68503703e+03
1.65486764e+03
1.67085577e+03
1.55178220e+03
1.45404810e+03
1.73709389e+03
1.61003192e+03
7.76894949e+02
1.50705520e+03
0.00000000e+00
0.00000000e+00
0.00000000e+00
0.00000000e+00
1.42221535e+03
7.92282127e+02
1.00034274e+03
1.62391061e+03
1.26766536e+03
1.84763270e+03
1.62239208e+03
1.62739447e+03
1.72401547e+03
1.66958132e+03
1.68102800e+03
1.57832010e+03
1.53754027e+03
1.44942554e+03
1.12473306e+03
8.69893706e+02
1.34131650e+03
0.00000000e+00
0.00000000e+00
0.00000000e+00
0.00000000e+00
1.60892302e+03
8.93280722e+02
1.53767963e+03
1.64733296e+03
1.51198666e+03
1.32924176e+03
1.68913548e+03
1.62604757e+03
1.71226338e+03
1.52513438e+03
1.70987797e+03
1.44891815e+03
1.62208087e+03
1.33687212e+03
1.39097914e+03
1.09146386e+03
1.62091673e+03
0.00000000e+00
7.29557048e+02
0.00000000e+00
0.00000000e+00
1.38903056e+03
1.17495164e+03
1.31446472e+03
1.25008099e+03
1.10521849e+03
1.50754219e+03
1.37742383e+03
1.55587152e+03
1.72775865e+03
1.64390853e+03
1.49088867e+03
1.44458594e+03
1.43929400e+03
1.43477752e+03
1.45794223e+03
1.07284057e+03
9.69001265e+02
0.00000000e+00
7.44470603e+02
0.00000000e+00
8.94156148e+02
1.16053337e+03
1.19646813e+03
1.33339231e+03
1.25181589e+03
1.13737186e+03
1.22352591e+03
1.52138073e+03
1.48882279e+03
1.49531688e+03
1.42990743e+03
1.47101743e+03
1.36541885e+03
1.36230160e+03
1.39974030e+03
1.88531751e+03
1.20349883e+03
1.12798784e+03
7.15714033e+02
0.00000000e+00
0.00000000e+00
1.08437307e+03
1.46458879e+03
1.28300764e+03
1.70482084e+03
1.44127062e+03
1.31891435e+03
1.47941118e+03
1.48174872e+03
1.34089606e+03
1.83774673e+03
1.59420155e+03
1.43635098e+03
1.29608142e+03
1.35664167e+03
1.51504936e+03
1.77051021e+03
1.25007919e+03
8.54220171e+02
6.07869185e+02
5.69576870e+02
1.03669162e+03
1.29804564e+03
1.73031466e+03
1.38515860e+03
1.59661396e+03
1.72892124e+03
1.83741321e+03
1.36495306e+03
1.45646571e+03
1.11054898e+03
1.82354692e+03
1.08622888e+03
1.89938844e+03
1.26351442e+03
1.33154491e+03
1.94025602e+03
1.75817206e+03
1.35566204e+03
1.72953821e+03
8.81191150e+02
9.42150280e+02
8.48441959e+02
9.78795013e+02
1.28938667e+03
1.35300480e+03
1.44526271e+03
1.27325662e+03
1.27362468e+03
1.21968085e+03
1.06125294e+03
9.15745341e+02
1.08552320e+03
8.60451876e+02
1.03451763e+03
1.06983269e+03
1.12203234e+03
1.23301882e+03
1.52947846e+03
1.02230084e+03
8.95546216e+02
5.28988186e+02
8.19269097e+02
9.37176932e+02
1.12920281e+03
1.40037959e+03
1.23998082e+03
1.42361231e+03
1.47924249e+03
1.23183433e+03
1.37298615e+03
1.68308780e+03
1.47161556e+03
1.53988188e+03
1.56355903e+03
1.66733619e+03
9.46268514e+02
9.99674633e+02
1.11319045e+03
1.41512536e+03
1.02329806e+03
1.69744629e+03
8.57769807e+02
0.00000000e+00
0.00000000e+00
1.24450776e+03
1.34652035e+03
1.37581311e+03
1.54008667e+03
1.22143651e+03
1.01327222e+03
0.00000000e+00
0.00000000e+00
6.81564678e+02
0.00000000e+00
0.00000000e+00
0.00000000e+00
0.00000000e+00
7.28276784e+02
6.41870287e+02
8.60664979e+02
5.68452329e+02
9.30922851e+02
5.68080966e+02
0.00000000e+00
7.37113496e+02
0.00000000e+00
1.08950304e+03
1.19428981e+03
1.20636636e+03
0.00000000e+00
1.02927296e+03
0.00000000e+00
8.56583170e+02
9.69719906e+02
6.45244027e+02
0.00000000e+00
0.00000000e+00
0.00000000e+00
0.00000000e+00
5.81460988e+02
0.00000000e+00
0.00000000e+00
0.00000000e+00
0.00000000e+00
0.00000000e+00
1.29480989e+03
1.34846249e+03
1.24754000e+03
1.24435043e+03
1.43481684e+03
1.26355760e+03