# vtk DataFile Version 3.0
MPS 3D Simulation Step 7700
ASCII
DATASET UNSTRUCTURED_GRID
POINTS 20213 double
-1.14128991e-03 3.31896876e-04 -7.97273601e-04
-1.03529257e-03 1.65514268e-04 -8.13422242e-04
-9.34134282e-04 3.03522980e-04 -1.02144622e-03
-8.86670363e-04 3.46893925e-04 -1.08368552e-03
-8.40673358e-04 1.97916048e-04 -1.05916207e-03
-8.35045172e-04 3.85148221e-04 -1.13808797e-03
-6.41451389e-04 2.30148349e-04 -1.21932347e-03
-5.07688559e-04 2.19517840e-04 -1.28062914e-03
-4.37227336e-04 2.90071227e-04 -1.22673687e-03
-4.18569517e-04 8.14320172e-04 -1.12526219e-03
-2.17350335e-04 8.87686168e-04 -1.19475563e-03
-3.07563554e-04 8.36406347e-04 -1.24543945e-03
-1.50031002e-04 6.53460474e-04 -1.15342840e-03
-6.93949508e-05 1.78169950e-04 -1.35283892e-03
-6.45108010e-07 2.18349646e-04 -1.37977908e-03
5.38121870e-04 1.43789766e-04 -1.24628021e-03
2.18341885e-04 6.95037559e-04 -8.95181117e-04
5.10900498e-04 2.03538079e-04 -1.29557848e-03
5.96949861e-04 7.27580433e-04 -1.07276205e-03
7.70119523e-04 8.08192831e-04 -9.16444142e-04
1.07075623e-03 5.20974906e-04 -7.85734526e-04
-1.08087067e-03 2.39100557e-04 -8.13990866e-04
-1.02050408e-03 2.28000164e-04 -8.81819027e-04
-9.97894272e-04 3.53014214e-04 -9.77913898e-04
-8.99307239e-04 4.33325496e-04 -1.09095130e-03
-8.47144060e-04 5.56238277e-04 -1.13856926e-03
-9.61974620e-04 4.72592668e-04 -1.04076508e-03
-7.76414336e-04 4.21040900e-04 -1.18779854e-03
-5.62607955e-04 3.67458812e-04 -1.30431617e-03
-3.81610710e-04 1.95897809e-04 -1.31566933e-03
-3.76393476e-04 1.19959685e-04 -1.26330172e-03
-1.07376650e-04 2.40224167e-04 -1.38579189e-03
1.37022003e-04 1.85092003e-04 -1.35537986e-03
1.84042324e-04 3.55964335e-04 -1.42381605e-03
2.47361665e-04 3.04764285e-04 -1.40323627e-03
2.86770617e-04 2.38709003e-04 -1.37434742e-03
4.54456861e-04 1.34321730e-04 -1.27379152e-03
4.41608623e-04 2.70539298e-04 -1.35172514e-03
4.65465070e-04 6.92052781e-04 -1.25435089e-03
4.28896170e-04 1.99356840e-04 -1.32364556e-03
5.96018939e-04 2.02701553e-04 -1.25273137e-03
8.15965078e-04 1.16604485e-04 -1.02608111e-03
-1.08909983e-03 3.07803216e-04 -8.50847490e-04
-1.05922985e-03 3.90227784e-04 -9.26252649e-04
-1.05075597e-03 5.97738781e-04 -9.63954765e-04
-8.13165427e-04 3.07183472e-04 -1.13252872e-03
-9.51338128e-04 3.87751229e-04 -1.03664772e-03
-8.41686884e-04 4.71510880e-04 -1.14115688e-03
-5.78603975e-04 2.72436092e-04 -1.26864577e-03
-6.84672747e-04 2.95065335e-04 -1.22210535e-03
-4.46592572e-04 3.45441659e-04 -1.34561908e-03
-3.24934387e-04 2.40676426e-04 -1.35513848e-03
-1.51457942e-04 4.02683780e-04 -1.42506868e-03
-4.63533886e-05 2.84826818e-04 -1.40630980e-03
1.46637428e-04 4.24207432e-04 -1.43613164e-03
3.22725275e-04 3.33837615e-04 -1.40186245e-03
2.82326301e-04 1.43717285e-04 -1.32054400e-03
4.20002513e-04 4.26953565e-04 -1.39133571e-03
4.83592375e-04 3.46482734e-04 -1.35997015e-03
4.05303687e-04 3.45701414e-04 -1.38599465e-03
6.59415627e-04 2.73205827e-04 -1.25287038e-03
7.41997670e-04 1.99126816e-04 -1.16583237e-03
7.67402441e-04 1.38373795e-04 -1.09964999e-03
-1.16405172e-03 4.11675808e-04 -7.97886426e-04
-1.08060616e-03 4.65959607e-04 -9.21133376e-04
-1.03495267e-03 5.15847584e-04 -9.76541236e-04
-9.07074734e-04 5.20125189e-04 -1.09100465e-03
-7.79792010e-04 5.04091301e-04 -1.18885066e-03
-6.98168081e-04 3.81017678e-04 -1.23490290e-03
-6.28096199e-04 3.32186658e-04 -1.26494095e-03
-3.82177192e-04 2.95443262e-04 -1.35479895e-03
-2.99324064e-04 3.19097588e-04 -1.38574576e-03
-3.10157282e-04 1.57293481e-04 -1.31508859e-03
-6.81551501e-05 4.33080425e-04 -1.43635608e-03
-1.27481670e-04 1.23695530e-04 -1.30718726e-03
-7.77749257e-06 3.73142222e-04 -1.43097123e-03
3.24746771e-05 2.99556825e-04 -1.41215763e-03
2.59058417e-04 3.94147095e-04 -1.42082889e-03
3.64495549e-04 2.68271514e-04 -1.37206786e-03
4.72495703e-04 5.04503410e-04 -1.37509657e-03
7.07611142e-04 3.48695370e-04 -1.24975749e-03
7.23332695e-04 2.65405241e-04 -1.21326384e-03
7.96819124e-04 2.51334884e-04 -1.15589395e-03
8.78907971e-04 2.60482292e-04 -1.09458375e-03
-1.18415393e-03 4.93472360e-04 -7.85606431e-04
-9.97962983e-04 6.32274471e-04 -1.01803500e-03
-1.01345448e-03 4.37738648e-04 -9.84791136e-04
-7.86707611e-04 5.85406139e-04 -1.18505456e-03
-6.47100176e-04 5.00091450e-04 -1.27714377e-03
-7.12063281e-04 4.60961622e-04 -1.23429935e-03
-3.67049719e-04 3.76470699e-04 -1.37820085e-03
-2.91538551e-04 4.07369606e-04 -1.40374999e-03
-2.24075746e-04 3.56286882e-04 -1.41013359e-03
-1.29324189e-04 4.88605381e-04 -1.43477251e-03
-4.60952413e-05 5.19464425e-04 -1.44274436e-03
-1.56659611e-04 3.03456858e-04 -1.40412179e-03
1.70502151e-05 4.57826640e-04 -1.44123313e-03
2.47474482e-04 5.55335466e-04 -1.42361447e-03
7.23977982e-05 3.87973425e-04 -1.43259724e-03
3.40232870e-04 4.16244977e-04 -1.40957688e-03
3.85867835e-04 5.00246240e-04 -1.40126227e-03
5.91669925e-04 2.77031339e-04 -1.29101577e-03
7.77297221e-04 3.25273062e-04 -1.20009299e-03
8.45654400e-04 3.12588615e-04 -1.14540581e-03
8.36454781e-04 3.89205507e-04 -1.17131044e-03
-1.17446710e-03 6.24716175e-04 -8.07223321e-04
-1.09614511e-03 5.43909433e-04 -9.12554130e-04
-9.39722424e-04 6.81892662e-04 -1.06424191e-03
-9.86018052e-04 5.49806849e-04 -1.02858835e-03
-7.14276890e-04 5.46001174e-04 -1.23612310e-03
-5.71808090e-04 4.57891593e-04 -1.31456295e-03
-4.99584545e-04 4.09179621e-04 -1.33847684e-03
-4.27767544e-04 4.38447649e-04 -1.36799641e-03
-2.19673520e-04 4.48807445e-04 -1.42128809e-03
-2.80806823e-04 5.04223111e-04 -1.41308322e-03
-2.03623902e-04 5.36806697e-04 -1.42873017e-03
-8.86553178e-05 3.48405279e-04 -1.42314897e-03
2.16916541e-04 4.65059091e-04 -1.43226091e-03
2.99400547e-04 4.87279719e-04 -1.41988578e-03
9.01552054e-05 2.41588281e-04 -1.38746029e-03
2.58741764e-04 7.17204835e-04 -1.40815429e-03
3.33393549e-04 5.68280833e-04 -1.40905375e-03
4.95800445e-04 4.26943458e-04 -1.36379561e-03
6.35658366e-04 3.56055169e-04 -1.29191161e-03
7.76653085e-04 4.11452764e-04 -1.22010178e-03
9.44954084e-04 4.26729637e-04 -1.07939293e-03
-1.14975402e-03 5.56834706e-04 -8.41618685e-04
-1.13368912e-03 4.76111065e-04 -8.55164251e-04
-1.01031319e-03 7.13388603e-04 -1.00144119e-03
-8.71774047e-04 6.32836678e-04 -1.11793913e-03
-7.29405660e-04 6.27836705e-04 -1.22517306e-03
-5.78792135e-04 5.40413484e-04 -1.31640219e-03
-5.01781300e-04 4.95117751e-04 -1.34827650e-03
-3.55689875e-04 4.68537257e-04 -1.39267474e-03
-4.29707188e-04 5.28100747e-04 -1.37638987e-03
-3.53396342e-04 5.55741045e-04 -1.39967355e-03
-1.23401974e-04 5.74163001e-04 -1.43778085e-03
3.35178725e-05 5.51995833e-04 -1.44371737e-03
9.28510032e-05 4.86176160e-04 -1.44111676e-03
1.65584449e-04 5.27904364e-04 -1.43631867e-03
1.93892137e-04 6.16911987e-04 -1.42829104e-03
5.52326236e-04 5.14513294e-04 -1.34227287e-03
5.05857911e-04 5.87088638e-04 -1.35845775e-03
5.62159130e-04 3.51859636e-04 -1.32797901e-03
5.72316390e-04 4.34579704e-04 -1.33445759e-03
8.86962510e-04 4.54479760e-04 -1.13473408e-03
8.65781432e-04 5.52570698e-04 -1.15348339e-03
-1.19283807e-03 7.05550653e-04 -7.70596775e-04
-1.10969656e-03 6.21209907e-04 -8.93289558e-04
-1.06421481e-03 6.72364955e-04 -9.46840646e-04
-9.32438423e-04 5.96756411e-04 -1.07322944e-03
-6.49580346e-04 5.84959991e-04 -1.27803911e-03
-5.08365817e-04 5.77709798e-04 -1.34857083e-03
-5.13465015e-04 6.58019792e-04 -1.34214954e-03
-4.34699488e-04 6.10235259e-04 -1.37577564e-03
-3.58779058e-04 6.38834787e-04 -1.39644091e-03
-2.74871182e-04 5.91249397e-04 -1.41654140e-03
-2.00225274e-04 6.24756716e-04 -1.42840084e-03
-4.40491310e-05 6.04572173e-04 -1.44013291e-03
2.77807572e-05 6.41225649e-04 -1.43730500e-03
1.07495735e-04 5.89711441e-04 -1.43852344e-03
1.83653374e-04 6.96205025e-04 -1.42242073e-03
4.22887638e-04 5.76136533e-04 -1.38617202e-03
3.71665597e-04 6.45479649e-04 -1.39473175e-03
5.82328273e-04 6.00148565e-04 -1.32853712e-03
6.44406646e-04 4.41503788e-04 -1.29826056e-03
8.29307684e-04 4.78827706e-04 -1.18514300e-03
8.39140099e-04 6.44946888e-04 -1.17086793e-03
-1.14394307e-03 6.85039880e-04 -8.48791275e-04
-1.10103807e-03 7.26456538e-04 -8.98977662e-04
-1.05108044e-03 7.67062723e-04 -9.48563493e-04
-7.47458047e-04 7.07142607e-04 -1.20160332e-03
-6.64853917e-04 6.62807927e-04 -1.26230335e-03
-5.81864912e-04 6.22181060e-04 -1.31330162e-03
-5.24719524e-04 7.35521433e-04 -1.32376804e-03
-4.41683655e-04 6.91004360e-04 -1.36607226e-03
-3.67368370e-04 7.20327431e-04 -1.38388156e-03
-2.84082549e-04 6.71559898e-04 -1.41063889e-03
-2.07725000e-04 7.05889399e-04 -1.41672905e-03
-1.23018800e-04 6.56786139e-04 -1.43307999e-03
-4.78421696e-05 6.93005921e-04 -1.43210496e-03
2.90719851e-05 7.26526993e-04 -1.42618735e-03
1.06131152e-04 6.71981862e-04 -1.43266766e-03
3.35866080e-04 7.21250893e-04 -1.39302709e-03
3.60837949e-04 8.06920159e-04 -1.36493957e-03
4.54205245e-04 6.59036567e-04 -1.37004693e-03
6.29913925e-04 5.24733519e-04 -1.30974580e-03
7.12270306e-04 4.32211267e-04 -1.26260108e-03
8.01499427e-04 5.76553926e-04 -1.20519776e-03
-1.14943909e-03 7.63266941e-04 -8.20315142e-04
-1.04289064e-03 8.47564937e-04 -9.22685108e-04
-9.52795318e-04 7.58579390e-04 -1.04434406e-03
-8.08366320e-04 6.60689754e-04 -1.16409206e-03
-7.51417720e-04 7.91816563e-04 -1.18012060e-03
-5.95574117e-04 7.00823887e-04 -1.29544135e-03
-6.13003175e-04 7.76207279e-04 -1.26990932e-03
-4.50409810e-04 7.68639218e-04 -1.34694476e-03
-3.77195341e-04 8.00430454e-04 -1.36066306e-03
-2.93564172e-04 7.50815759e-04 -1.39552288e-03
-2.18395459e-04 7.85075253e-04 -1.39791987e-03
-1.29258517e-04 7.38353022e-04 -1.41890464e-03
-5.12897273e-05 7.74847895e-04 -1.41377548e-03
2.63686185e-05 8.07198499e-04 -1.40632232e-03
1.10037265e-04 7.55399395e-04 -1.41786654e-03
2.79348218e-04 7.97065828e-04 -1.38443482e-03
4.44798695e-04 8.11644435e-04 -1.34114117e-03
4.11517555e-04 7.33628236e-04 -1.36995734e-03
6.62084253e-04 6.02886584e-04 -1.29049981e-03
7.68128631e-04 5.01267495e-04 -1.23013727e-03
7.94189926e-04 7.41416265e-04 -1.19161619e-03
-1.09872065e-03 8.04654503e-04 -8.75169446e-04
-1.03457402e-03 9.21698844e-04 -8.87243399e-04
[...]
POINT_DATA 20213
SCALARS pressure double 1
LOOKUP_TABLE default
0.00000000e+00
0.00000000e+00
8.39317578e+02
9.23521641e+02
0.00000000e+00
8.40090859e+02
5.27403528e+02
0.00000000e+00
5.44903109e+02
7.57407419e+02
5.08544938e+02
4.91654626e+02
1.14404705e+03
0.00000000e+00
0.00000000e+00
6.30857303e+02
1.89598230e+03
0.00000000e+00
1.05750604e+03
1.16117116e+03
8.44025475e+02
0.00000000e+00
0.00000000e+00
0.00000000e+00
9.16533030e+02
0.00000000e+00
8.55908631e+02
0.00000000e+00
0.00000000e+00
4.56377998e+02
3.99030377e+02
0.00000000e+00
0.00000000e+00
9.54235112e+02
0.00000000e+00
0.00000000e+00
6.49961893e+02
8.85922789e+02
7.02035811e+02
7.86440401e+02
0.00000000e+00
4.14876620e+02
0.00000000e+00
0.00000000e+00
1.01069208e+03
8.70034572e+02
8.74160062e+02
8.40508496e+02
0.00000000e+00
0.00000000e+00
0.00000000e+00
0.00000000e+00
6.04237915e+02
0.00000000e+00
1.11358882e+03
0.00000000e+00
0.00000000e+00
0.00000000e+00
9.93700166e+02
0.00000000e+00
0.00000000e+00
0.00000000e+00
0.00000000e+00
1.01813747e+03
1.05811604e+03
1.07197993e+03
0.00000000e+00
7.14960556e+02
0.00000000e+00
4.49845492e+02
0.00000000e+00
0.00000000e+00
4.55981386e+02
8.69906616e+02
0.00000000e+00
8.36180285e+02
0.00000000e+00
0.00000000e+00
7.84388818e+02
0.00000000e+00
7.59303948e+02
0.00000000e+00
6.30964554e+02
0.00000000e+00
9.65428641e+02
0.00000000e+00
9.04227544e+02
0.00000000e+00
0.00000000e+00
5.74239868e+02
0.00000000e+00
0.00000000e+00
0.00000000e+00
0.00000000e+00
0.00000000e+00
0.00000000e+00
1.12980254e+03
1.14182270e+03
1.05488725e+03
0.00000000e+00
0.00000000e+00
0.00000000e+00
0.00000000e+00
8.31380930e+02
9.10508783e+02
9.79594721e+02
1.15371332e+03
0.00000000e+00
0.00000000e+00
0.00000000e+00
0.00000000e+00
0.00000000e+00
0.00000000e+00
0.00000000e+00
5.17492260e+02
0.00000000e+00
0.00000000e+00
9.60774207e+02
0.00000000e+00
0.00000000e+00
0.00000000e+00
8.85279056e+02
8.78921137e+02
8.15426148e+02
0.00000000e+00
7.01197423e+02
1.06512361e+03
1.02659579e+03
0.00000000e+00
0.00000000e+00
0.00000000e+00
0.00000000e+00
0.00000000e+00
0.00000000e+00
0.00000000e+00
0.00000000e+00
8.79731611e+02
0.00000000e+00
1.23107647e+03
1.22560793e+03
1.16910120e+03
8.64689997e+02
7.83149915e+02
0.00000000e+00
8.06377370e+02
0.00000000e+00
8.94646769e+02
9.25781242e+02
1.08523424e+03
0.00000000e+00
0.00000000e+00
0.00000000e+00
0.00000000e+00
6.79722867e+02
0.00000000e+00
6.80043543e+02
8.38693215e+02
8.11120421e+02
9.83551854e+02
1.16783009e+03
1.20667480e+03
9.53870844e+02
7.86908795e+02
7.08343168e+02
0.00000000e+00
8.82995638e+02
0.00000000e+00
9.69630572e+02
0.00000000e+00
7.65277912e+02
0.00000000e+00
0.00000000e+00
0.00000000e+00
0.00000000e+00
5.77944164e+02
5.71604237e+02
0.00000000e+00
7.01833180e+02
6.96308201e+02
0.00000000e+00
0.00000000e+00
8.16166216e+02
1.11649152e+03
0.00000000e+00
0.00000000e+00
0.00000000e+00
0.00000000e+00
0.00000000e+00
9.30701905e+02
9.51082989e+02
6.37451398e+02
0.00000000e+00
0.00000000e+00
0.00000000e+00
0.00000000e+00
0.00000000e+00
0.00000000e+00
4.92584655e+02
0.00000000e+00
0.00000000e+00
6.67223689e+02
0.00000000e+00
0.00000000e+00
8.23737380e+02
0.00000000e+00
0.00000000e+00
0.00000000e+00
0.00000000e+00
0.00000000e+00
1.04129761e+03
0.00000000e+00
0.00000000e+00
0.00000000e+00
0.00000000e+00
0.00000000e+00
0.00000000e+00
0.00000000e+00
4.81427756e+02
0.00000000e+00
0.00000000e+00
5.38007572e+02
0.00000000e+00
0.00000000e+00
0.00000000e+00
0.00000000e+00
0.00000000e+00
0.00000000e+00
0.00000000e+00
0.00000000e+00
0.00000000e+00
9.62126729e+02
8.01029881e+02
6.66178597e+02
3.43819662e+02
0.00000000e+00
4.16871489e+02
0.00000000e+00
0.00000000e+00
5.65413840e+02
0.00000000e+00
0.00000000e+00
0.00000000e+00
0.00000000e+00
6.08273146e+02
5.67409010e+02
0.00000000e+00
0.00000000e+00
0.00000000e+00
0.00000000e+00
5.30872659e+02
8.29651042e+02
0.00000000e+00
0.00000000e+00
0.00000000e+00
0.00000000e+00
0.00000000e+00
0.00000000e+00
4.53579741e+02
5.83837453e+02
0.00000000e+00
0.00000000e+00
0.00000000e+00
0.00000000e+00
0.00000000e+00
4.27211208e+02
5.44230269e+02
0.00000000e+00
0.00000000e+00
0.00000000e+00
0.00000000e+00
0.00000000e+00
0.00000000e+00
8.58040172e+02
0.00000000e+00
0.00000000e+00
0.00000000e+00
0.00000000e+00
0.00000000e+00
0.00000000e+00
0.00000000e+00
0.00000000e+00
0.00000000e+00
0.00000000e+00
0.00000000e+00
0.00000000e+00
6.72594407e+02
7.27170494e+02
6.66706707e+02
0.00000000e+00
4.96360680e+02
6.57887140e+02
0.00000000e+00
0.00000000e+00
0.00000000e+00
0.00000000e+00
0.00000000e+00
0.00000000e+00
0.00000000e+00
0.00000000e+00
0.00000000e+00
0.00000000e+00
0.00000000e+00
0.00000000e+00
0.00000000e+00
0.00000000e+00
0.00000000e+00
0.00000000e+00
0.00000000e+00
7.25087050e+02
7.22226946e+02
0.00000000e+00
5.52444137e+02
5.51692411e+02
0.00000000e+00
0.00000000e+00
0.00000000e+00
0.00000000e+00
0.00000000e+00
0.00000000e+00
0.00000000e+00
0.00000000e+00
0.00000000e+00
0.00000000e+00
0.00000000e+00
0.00000000e+00
0.00000000e+00
0.00000000e+00
0.00000000e+00
6.72087952e+02
7.63856043e+02
0.00000000e+00
0.00000000e+00
0.00000000e+00
0.00000000e+00
0.00000000e+00
8.38991244e+02
0.00000000e+00
0.00000000e+00
0.00000000e+00
0.00000000e+00
0.00000000e+00
0.00000000e+00
0.00000000e+00
0.00000000e+00
0.00000000e+00
0.00000000e+00
0.00000000e+00
0.00000000e+00
0.00000000e+00
0.00000000e+00
0.00000000e+00
6.32564464e+02
0.00000000e+00
0.00000000e+00
0.00000000e+00
7.00048628e+02
5.75266551e+02
0.00000000e+00
0.00000000e+00
0.00000000e+00
0.00000000e+00
0.00000000e+00
0.00000000e+00
0.00000000e+00
0.00000000e+00
0.00000000e+00
0.00000000e+00
0.00000000e+00
0.00000000e+00
0.00000000e+00
0.00000000e+00
0.00000000e+00
0.00000000e+00
0.00000000e+00
0.00000000e+00
0.00000000e+00
0.00000000e+00
7.26107370e+02
0.00000000e+00
0.00000000e+00
0.00000000e+00
0.00000000e+00
0.00000000e+00
0.00000000e+00
0.00000000e+00
0.00000000e+00
0.00000000e+00
0.00000000e+00
0.00000000e+00
0.00000000e+00
0.00000000e+00
0.00000000e+00
0.00000000e+00
0.00000000e+00
0.00000000e+00
0.00000000e+00
0.00000000e+00
0.00000000e+00
0.00000000e+00
0.00000000e+00
0.00000000e+00
0.00000000e+00
0.00000000e+00
0.00000000e+00
0.00000000e+00
7.07180188e+02
0.00000000e+00
5.68291274e+02
7.69884522e+02
8.65961579e+02
0.00000000e+00
1.03051626e+03
8.63208722e+02
6.29395882e+02
0.00000000e+00
0.00000000e+00
0.00000000e+00
0.00000000e+00
0.00000000e+00
0.00000000e+00
5.85513714e+02
0.00000000e+00
6.54277596e+02
6.69932020e+02
6.78534997e+02
6.95506716e+02
8.11547621e+02
8.43031920e+02
0.00000000e+00
7.51522897e+02
0.00000000e+00
9.82567352e+02
1.12006389e+03
1.09021352e+03
1.01434973e+03
7.97766500e+02
0.00000000e+00
0.00000000e+00
0.00000000e+00
0.00000000e+00
4.84011454e+02
5.93229436e+02
6.85075042e+02
1.11445884e+03
0.00000000e+00
8.33741203e+02
0.00000000e+00
1.31407864e+03
7.65241814e+02
0.00000000e+00
1.17061289e+03
1.64618978e+03
1.79408957e+03
1.04007682e+03
6.94017614e+02
6.21007327e+02
1.72277427e+03
9.27911246e+02
1.05931920e+03
1.06354027e+03
0.00000000e+00
0.00000000e+00
8.82642717e+02
1.03081770e+03
3.84174274e+02
2.08460609e+03
2.12830279e+02
1.13317508e+03
6.01215045e+02
1.33037623e+03
6.20926091e+02
1.89129367e+03
2.03428726e+03
2.24095714e+03
1.02100071e+03
2.29682534e+03
2.20830079e+03
1.41302020e+03
1.41520171e+03
1.14266711e+03
1.45538594e+03
1.19700130e+03
8.49839114e+02
0.00000000e+00
7.73034439e+02
8.01304667e+02
1.68494738e+03
9.44554212e+02
6.83726718e+02
2.02406719e+03
0.00000000e+00
0.00000000e+00
6.20673417e+02
0.00000000e+00
0.00000000e+00
0.00000000e+00
7.36495998e+02
2.00096103e+03
5.04971820e+02
1.17589031e+03
9.72790925e+02
1.18568915e+03
1.03935928e+03
6.41076175e+02
9.45895540e+02
3.61129902e+02
2.42378262e+03
9.62377537e+02
8.15421051e+02
1.79041638e+03
1.62271386e+02
1.38900415e+03
4.73789799e+02
5.96766296e+02
8.13622299e+02
1.38558081e+03
2.03671065e+03
1.37280261e+03
9.40874133e+02
6.49150931e+02
1.78490233e+03
1.42449280e+03
1.00213078e+03
1.88359215e+03
0.00000000e+00
7.39429483e+02
7.58479725e+02
1.63896612e+03
1.81862699e+03
2.41231521e+03
2.08796059e+03
1.54903723e+03
3.50157990e+02
3.08096473e+02
2.07617722e+03
2.10137268e+03
1.82677101e+03
7.88605005e+02
1.16692013e+03
3.68679058e+02
2.25690468e+03
1.01071782e+03
8.24540463e+02
1.33047363e+03
9.38351474e+02
0.00000000e+00
8.82853492e+02
2.04613025e+03
2.01475497e+02
4.89550328e+02
2.03789469e+03
0.00000000e+00
2.32803530e+03
1.18496395e+03
3.37229663e+02
4.02552813e+02
2.29866113e+03
5.04486261e+02
1.81634937e+03
1.85503575e+03
7.23333744e+02
9.30556015e+02
1.23430945e+03
7.71364300e+02
8.58601843e+02
1.42870090e+03
0.00000000e+00
9.13840710e+02
1.47933025e+03
1.21331910e+03
1.73804527e+03
1.74886117e+03
7.74901502e+01
1.98503836e+03
1.31331803e+03
1.18697516e+02
1.57645340e+03
5.31811740e+02
1.77884329e+03
2.10257807e+03
1.31946732e+03
1.39221888e+03
1.78491865e+03
1.39162863e+03
6.93524671e+02
5.61111489e+02
9.30967322e+02
6.94953280e+02
0.00000000e+00
4.78314521e+02
5.75130755e+02
1.38262294e+03
1.25425462e+03
1.78813125e+03
1.31288197e+03
2.25273393e+03
1.02946584e+03
2.02209778e+03
1.28754638e+03
8.15289261e+02
1.97653756e+03
1.39936225e+03
2.07290895e+03
2.08816430e+03
6.20205613e+02
4.53366300e+02
0.00000000e+00
8.00952450e+02
0.00000000e+00
9.77198985e+02
2.17370096e+03
0.00000000e+00
1.16122432e+03
6.09667929e+02
1.65531235e+03
9.73551387e+02
1.90568839e+03
2.00982895e+03
5.03924588e+02
1.78202163e+03
2.33859852e+03
8.94395174e+02
1.80919800e+03
6.20038717e+02
4.57334387e+02
2.19818365e+03
2.21887041e+03
8.87993586e+02
8.68350413e+02
1.06615930e+03
0.00000000e+00
2.32914702e+03
0.00000000e+00
7.50610159e+02
5.12700233e+02
1.69725228e+02
4.60500927e+02
6.05822226e+02
2.03745572e+03
8.52265303e+02
7.97296567e+02
7.16190255e+02
2.26905530e+03
1.02398899e+03
6.20280591e+02
9.76179403e+02
5.23135961e+02
9.11649993e+02
0.00000000e+00
7.44588693e+02
8.93286823e+02
8.72710527e+02
1.62639625e+03
0.00000000e+00
8.53947916e+02
1.92248171e+02
6.45427175e+02
3.45936028e+02
1.79472469e+03
1.58649758e+03
1.81625930e+03
9.96443303e+02
2.16616320e+03
9.05418887e+02
2.11614877e+03
8.30211432e+02
4.30724084e+02
1.91461261e+03
1.78432433e+03
0.00000000e+00
1.21188843e+03
1.01784665e+03
0.00000000e+00
1.00744447e+03
4.47117333e+02
6.49266811e+02
1.32041028e+02
3.05753971e+02
8.21498510e+02
7.66776032e+02
2.33686368e+03
1.46208774e+03
2.28144060e+03
1.45638556e+03
1.81766001e+03
6.92121078e+02
1.89713813e+03
6.58973021e+02
4.34694173e+02
5.52814227e+02
0.00000000e+00
7.43482593e+02
0.00000000e+00
0.00000000e+00
1.69399387e+03
6.08569517e+02
1.83354341e+03
1.79927199e+03
3.02181931e+02
1.03436247e+03
1.79555286e+03
1.83618179e+03
1.11083888e+03
1.49632648e+03
2.36256892e+03
7.01672473e+02
2.29116815e+03
1.01740071e+03
8.80830105e+02
7.53704225e+02
2.19959382e+03
0.00000000e+00
2.12245345e+03
0.00000000e+00
0.00000000e+00
6.19900085e+02
0.00000000e+00
1.32604005e+03
3.68629663e+02
6.41056913e+02
1.26372479e+03
1.25307668e+03
1.88101533e+03
8.14032478e+02
9.73213330e+02
8.65699761e+02
1.15624520e+03
8.01555143e+02
8.37819399e+02
8.44923229e+02
1.24475407e+03
1.41573319e+03
6.96347471e+02
5.40428585e+02
8.21258988e+02
0.00000000e+00
8.05027719e+02
7.71720778e+02
1.26209268e+03
1.32170287e+03
9.74692487e+02
1.93473899e+03
2.11267777e+03
2.10178266e+03
9.32932170e+02
2.29893512e+03
1.09208509e+03
9.77993241e+02
9.81424358e+02
1.38017865e+03
1.47294359e+03
2.18166436e+03
5.07570838e+02
8.49631278e+02
6.03797899e+02
8.06297863e+02
0.00000000e+00
1.07688394e+03
1.19742411e+03
6.61764768e+02
7.74244429e+02
0.00000000e+00
9.33852695e+02
7.13647345e+02
7.84047731e+02
1.02992157e+03
1.11506589e+03
2.04710175e+03
1.23364848e+03
1.08924384e+03
7.79500963e+02
7.44940074e+02
1.88582546e+03
8.97769421e+02
1.45437300e+03
5.98133387e+02
8.24250396e+02
0.00000000e+00
1.31004561e+03
1.74467828e+03
7.66285836e+02
2.33536555e+03
6.24190276e+02
8.76478506e+02
5.55311597e+02
1.96563371e+03
8.01974829e+02
9.94970793e+02
1.14420493e+03
1.33065463e+03
1.15256447e+03
2.07910124e+03
1.11709898e+03
1.91309702e+03
9.39767895e+02
1.82165730e+03
5.52398321e+02
7.36857978e+02
0.00000000e+00
1.14416584e+03
6.38949345e+02
1.39016046e+03
6.67192160e+02
1.80715916e+03
1.23341413e+03
8.73637588e+02
1.49042850e+03
9.84609054e+02
9.45066620e+02
9.80972824e+02
2.25204565e+03
1.97997508e+03
1.13592694e+03
5.36130846e+02
9.55644500e+02
1.33810697e+03
5.30202567e+02
4.47724886e+02
7.62476517e+02
0.00000000e+00
9.95059003e+02
8.26168576e+02
9.65633542e+02
1.80038301e+03
1.42289111e+03
4.98380398e+02
0.00000000e+00
0.00000000e+00
0.00000000e+00
7.62417634e+02
0.00000000e+00
7.88297031e+02
9.22139903e+02
4.57902447e+02
8.96270157e+02
9.11836409e+02
4.45152370e+02
6.04328076e+02
1.41677501e+03
0.00000000e+00
0.00000000e+00
2.29514086e+03
9.46712770e+02
1.34331994e+03
6.96934026e+02
1.43593713e+03
8.63128230e+02
5.49840724e+02
9.43990505e+02
7.43976362e+02
1.97997695e+03
9.87552743e+02
2.27430258e+03
7.25157283e+02
5.64247230e+02
4.69000129e+02
5.12261857e+02
7.72051638e+02
1.05310189e+03
2.05083051e+03
0.00000000e+00
9.05844429e+02
9.18029080e+02
7.65577778e+02
0.00000000e+00
6.47718835e+02
6.92296303e+02
0.00000000e+00
7.15070220e+02
0.00000000e+00
0.00000000e+00
9.06891502e+02
0.00000000e+00
1.03285275e+03
1.13397681e+03
8.87391332e+02
0.00000000e+00
0.00000000e+00
0.00000000e+00
0.00000000e+00
0.00000000e+00
0.00000000e+00
0.00000000e+00
0.00000000e+00
0.00000000e+00
7.19693008e+02
1.72285616e+02
0.00000000e+00
5.42122542e+02
0.00000000e+00
0.00000000e+00
2.32028245e+02
1.86244985e+02
1.24518529e+03
7.98436932e+02
5.39887859e+02
8.47060007e+02
5.17522023e+02
7.77945998e+02
9.14199714e+02
0.00000000e+00
0.00000000e+00
0.00000000e+00
0.00000000e+00
1.66591202e+03
9.57182873e+02
6.47560619e+02
8.96465913e+02
2.29320881e+02
5.80069643e+02
4.38030841e+02
2.19198122e+03
0.00000000e+00
5.73484941e+02
1.31046513e+03
1.54677077e+02
0.00000000e+00
7.87970471e+02
1.68641513e+03
1.98751398e+03
1.79592120e+03
1.22978808e+03
9.08920655e+02
0.00000000e+00
7.15766398e+02
9.95428768e+02
1.81307846e+03
2.31717409e+03
1.81156895e+03
1.96445088e+03
2.38924653e+03
5.33370979e+02
1.12559595e+03
1.57230072e+03
4.38610023e+02
9.93662161e+02
9.13150172e+02
1.39543330e+03
1.37897209e+03
2.14070837e+03
9.63694597e+02
1.04409873e+03
7.31361916e+02
1.06367314e+03
6.34533992e+02
0.00000000e+00
4.19404208e+02
1.92894358e+03
8.18398552e+02
2.04241639e+03
8.06255246e+02
1.45154457e+03
1.70676755e+03
8.98616458e+02
1.66953325e+02
2.16743142e+02
1.83067257e+03
1.71425419e+03
5.33137513e+02
1.61408130e+03
1.12477605e+03
1.10430419e+03
1.55535379e+03
1.11849569e+03
1.28803053e+03
0.00000000e+00
0.00000000e+00
1.29288217e+03
5.51011004e+02
1.05135617e+03
1.29315685e+03
1.93339964e+03
8.23435916e+02
1.71255301e+03
5.13109735e+02
1.78839082e+03
1.11158729e+03
6.47018723e+02
5.25287886e+02
1.84194510e+03
6.42070548e+02
9.90163688e+02
1.23800802e+03
1.06327354e+03
2.04802576e+03
1.34394624e+03
0.00000000e+00
0.00000000e+00
1.20423908e+03
5.25376663e+02
1.43548622e+03
2.34737568e+03
1.00144174e+03
1.05732046e+03
1.91418257e+03
5.97205306e+02
1.35559398e+03
4.20553672e+02
1.79350558e+03
4.31578837e+02
4.80691831e+02
1.84451338e+03
1.08534173e+03
1.11715459e+03
7.74974208e+02
1.35171205e+03
1.15073059e+03
0.00000000e+00
0.00000000e+00
1.47006757e+03
1.52758282e+03
1.05390477e+03
1.01699405e+03
1.96467291e+03
1.29868249e+03
1.85911613e+03
8.08280938e+02
2.26050335e+03
1.65564143e+03
1.24798336e+03
8.96435723e+02
5.09751352e+02
2.16829893e+03
1.55756861e+03
1.75273967e+03
2.24508097e+03
8.97588357e+02
1.00780953e+03
0.00000000e+00
9.41471686e+02
0.00000000e+00
2.38675610e+03
2.28139925e+03
2.04376628e+03
2.01627861e+03
1.52978381e+02
5.27021821e+02
5.61478665e+02
1.72089331e+03
2.25236379e+03
1.47860191e+03
1.90106029e+03
2.10167697e+03
2.28652406e+03
8.73194155e+02
2.27298140e+03
2.11200367e+03
1.92993439e+03
0.00000000e+00
0.00000000e+00
0.00000000e+00
9.28181974e+02
7.12125120e+02
7.72625455e+02
2.14414460e+03
1.35324811e+03
2.25234751e+03
1.05949024e+03
1.06953146e+03
1.49435371e+03
2.11339499e+03
1.61808988e+03
9.20925829e+02
6.33859900e+02
1.75206549e+03
1.07170672e+03
1.88227950e+03
1.59397743e+03
8.65058738e+02
9.28159600e+02
0.00000000e+00
0.00000000e+00
8.86214385e+02
2.17709475e+03
1.34005333e+02
2.20709839e+03
2.31175147e+03
2.36511702e+03
0.00000000e+00
5.72752182e+02
1.77482737e+03
5.19792462e+02
1.63525645e+03
1.35286756e+03
1.02499705e+03
1.91408769e+03
6.01638537e+02
1.25904890e+03
8.27799601e+02
6.95463039e+02
0.00000000e+00
1.14091676e+03
0.00000000e+00
9.07804241e+02
1.83731132e+03
3.33717847e+02
2.13928606e+03
1.64785442e+03
1.73150480e+03
1.29187449e+03
2.29821522e+03
2.06300064e+03
1.36431464e+03
2.39397281e+03
8.50933197e+02
2.14026480e+03
2.09790424e+03
1.05946977e+03
1.56251277e+03
9.68114072e+02
1.23678114e+03
1.04174979e+03
1.09836402e+03
7.12553913e+02
9.59173318e+02
2.09225043e+03
6.96063837e+02
2.08881064e+03
0.00000000e+00
1.36085239e+03
7.45976567e+02
2.42038257e+03
1.20892907e+03
1.02189925e+03
1.37775225e+03
8.57098862e+02
1.19669468e+03
1.35575575e+03
1.47407684e+03
1.13818693e+03
1.25023643e+03
1.71894434e+03
1.03475446e+03
0.00000000e+00
6.16766781e+02
7.05102886e+02
1.25189330e+03
9.60583657e+02
1.69823636e+03
4.89910168e+02
1.97553781e+03
2.40400969e+03
1.76086217e+03
2.37025262e+03
1.24045383e+03
2.32408792e+03
9.98565733e+02
2.30589528e+03
4.05392146e+02
2.05489354e+03
1.82444489e+03
1.16141210e+03
1.76839929e+03
0.00000000e+00
7.80435199e+02
0.00000000e+00
0.00000000e+00
2.21496835e+03
1.25433060e+03
1.67661077e+03
1.67904367e+03
1.69031024e+03
9.51164321e+02
1.73346645e+03
2.14483518e+03
5.23809651e+02
2.01434795e+03
1.79274881e+03
2.30661204e+03
5.40168630e+02
9.71521142e+02
2.09853945e+03
1.64595236e+03
9.56600849e+02
0.00000000e+00
8.18702830e+02
0.00000000e+00
1.85742642e+03
1.91260358e+03
1.91816325e+03
2.37195413e+03
2.26526191e+03
1.45229172e+03
7.72501409e+02
2.22753031e+03
1.97605002e+03
1.53542961e+03
2.28851187e+03
1.08025441e+03
1.02366682e+03
2.30977977e+03
2.29863179e+03
1.00385136e+03
1.84679731e+03
2.16893749e+03
6.34517846e+02
0.00000000e+00
0.00000000e+00
1.46844063e+03
2.30651527e+03
2.05174400e+03
1.65958858e+03
1.01751809e+03
2.38202373e+03
1.43754071e+03
2.25334960e+03
1.92261994e+03
5.73695445e+02
1.55513269e+03
1.32695760e+03
1.50969525e+03
1.86172423e+03
1.67718670e+03
1.48219612e+03
1.86791728e+03
1.43066899e+03
5.81518038e+02
8.35908632e+02
0.00000000e+00
2.21177492e+03
3.99000246e+02
2.32622205e+03
9.67827726e+02
9.96909083e+02
5.95538251e+02
1.25634618e+03
1.86171111e+03
2.36349039e+03
1.22668738e+03
1.54594533e+03
5.80767912e+02
1.19029879e+03
1.30516719e+03
7.06036395e+02
1.95486211e+03
2.28405210e+03
1.43248240e+03
1.28169237e+03
7.58304337e+02
0.00000000e+00
1.09318388e+03
1.44850252e+03
8.84525096e+02
9.03836558e+02
2.41044158e+03
2.39289171e+03
2.00897146e+03
8.14054768e+02
5.83892301e+02
8.28662385e+02
7.82387632e+02
6.79408603e+02
1.00624246e+03
1.55703704e+03
2.35170986e+03
2.22798635e+03
1.96990326e+03
1.66577321e+03
8.05534817e+02
7.15661370e+02
7.42175226e+02
1.09001445e+03
2.12130499e+03
2.17748500e+03
1.44586552e+03
1.14482344e+03
1.53162775e+03
2.31691181e+03
1.77431379e+03
1.25263162e+03
1.07644445e+03
2.25953064e+03
1.56273359e+03
1.54646000e+03
1.54983181e+03
2.23121266e+03
2.26013351e+03
2.18467319e+03
1.71376024e+03
1.42365223e+03
6.18313076e+02
0.00000000e+00
1.11779164e+03
8.00841596e+02
2.07589338e+03
2.38552707e+03
2.03837549e+03
1.53802573e+03
0.00000000e+00
5.78552690e+02
0.00000000e+00
0.00000000e+00
0.00000000e+00
6.96618866e+02
8.03064467e+02
9.48129634e+02
5.40167781e+02
1.27753720e+03
5.88301203e+02
2.14001830e+03
7.91728465e+02
0.00000000e+00
7.79571915e+02
9.24306820e+02
8.16458168e+02
0.00000000e+00
0.00000000e+00
0.00000000e+00
5.74659428e+02
0.00000000e+00
0.00000000e+00
0.00000000e+00
5.09300271e+02
0.00000000e+00
0.00000000e+00
9.13291020e+02
0.00000000e+00
0.00000000e+00
0.00000000e+00
0.00000000e+00
0.00000000e+00
5.23625587e+02
0.00000000e+00
3.21640743e+02
7.74765636e+02
6.53851191e+02
2.28216189e+03
6.04911671e+02
1.18053408e+03