# vtk DataFile Version 3.0
MPS 3D Simulation Step 8100
ASCII
DATASET UNSTRUCTURED_GRID
POINTS 20213 double
-1.15714245e-03 3.42140388e-04 -7.90796530e-04
-1.05095655e-03 1.52747287e-04 -8.19701894e-04
-9.39649676e-04 2.86179599e-04 -1.03023538e-03
-8.95876246e-04 3.29619794e-04 -1.08575117e-03
-8.47616957e-04 1.80018332e-04 -1.04967870e-03
-8.39680515e-04 3.61360765e-04 -1.13910983e-03
-6.20968017e-04 2.24397299e-04 -1.21834318e-03
-4.87183620e-04 2.31652911e-04 -1.29176246e-03
-4.37771049e-04 3.37853244e-04 -1.24311844e-03
-4.17397838e-04 8.27015689e-04 -1.12485537e-03
-2.21630031e-04 8.99428929e-04 -1.13399716e-03
-3.35866588e-04 8.86046478e-04 -1.22280687e-03
-8.98960741e-05 6.77226011e-04 -1.10712335e-03
-2.38798113e-05 2.03121341e-04 -1.37446171e-03
5.15295524e-05 2.21926168e-04 -1.38951569e-03
5.34046277e-04 1.31876687e-04 -1.22521279e-03
2.21712019e-04 7.04735117e-04 -7.94384297e-04
5.26507032e-04 2.09308357e-04 -1.28098727e-03
5.45268618e-04 7.56728850e-04 -1.09376763e-03
7.71326432e-04 8.48772880e-04 -9.18685109e-04
1.09184146e-03 6.14101064e-04 -7.68833124e-04
-1.09655544e-03 2.33392238e-04 -8.23618105e-04
-1.04461931e-03 1.98247521e-04 -8.78079070e-04
-1.01430784e-03 3.50680624e-04 -9.75809771e-04
-9.12856925e-04 4.13485799e-04 -1.08503585e-03
-8.67770403e-04 5.20471326e-04 -1.13541996e-03
-9.78509043e-04 4.56060758e-04 -1.02786416e-03
-7.80110670e-04 3.95734786e-04 -1.18888117e-03
-5.72545136e-04 3.64834477e-04 -1.30249525e-03
-3.88816673e-04 2.04592018e-04 -1.31388038e-03
-3.72834883e-04 1.31361483e-04 -1.25928646e-03
-9.88742117e-05 2.50288023e-04 -1.38844148e-03
1.24716555e-04 1.87279174e-04 -1.37001984e-03
1.79067458e-04 3.94510052e-04 -1.43569392e-03
2.66525410e-04 3.43448473e-04 -1.41425935e-03
2.72559825e-04 2.70372789e-04 -1.39031078e-03
4.66604773e-04 1.58458492e-04 -1.27720201e-03
4.30482508e-04 2.99972335e-04 -1.35554461e-03
4.19079761e-04 7.16860533e-04 -1.25656397e-03
4.42540300e-04 2.26113999e-04 -1.32324110e-03
5.99344062e-04 2.06000378e-04 -1.24380766e-03
8.37834075e-04 1.62635415e-04 -1.05856936e-03
-1.10302896e-03 3.08721122e-04 -8.53362026e-04
-1.06445709e-03 3.56366522e-04 -9.15497272e-04
-1.05962985e-03 5.93986009e-04 -9.45588145e-04
-8.18905870e-04 2.83819806e-04 -1.12766383e-03
-9.62980742e-04 3.68370371e-04 -1.03244313e-03
-8.56551754e-04 4.38965770e-04 -1.13937806e-03
-5.64865839e-04 2.73619474e-04 -1.27346164e-03
-6.85342478e-04 2.67991234e-04 -1.20478212e-03
-4.38529759e-04 3.54010027e-04 -1.35556843e-03
-3.20549605e-04 2.44311309e-04 -1.35201661e-03
-1.47457763e-04 4.01103974e-04 -1.42206877e-03
-2.34630365e-05 2.78016797e-04 -1.40555813e-03
1.17572042e-04 4.51268950e-04 -1.44559686e-03
3.42806819e-04 3.55840925e-04 -1.39792885e-03
2.88291546e-04 2.04950154e-04 -1.35674949e-03
4.04081369e-04 4.67047542e-04 -1.39349758e-03
4.90639299e-04 3.64563340e-04 -1.34742387e-03
4.16225688e-04 3.79984693e-04 -1.37934813e-03
6.57205454e-04 2.66075013e-04 -1.23464838e-03
7.46598049e-04 1.80612503e-04 -1.13633848e-03
7.50349024e-04 1.14795341e-04 -1.06386781e-03
-1.17701178e-03 4.14949344e-04 -7.78639489e-04
-1.08355291e-03 4.47072476e-04 -9.06024743e-04
-1.04493291e-03 5.16820819e-04 -9.58732821e-04
-9.24375574e-04 4.99304826e-04 -1.08092772e-03
-7.96217623e-04 4.75513725e-04 -1.18704549e-03
-7.03190750e-04 3.50352889e-04 -1.22698842e-03
-6.29547880e-04 3.15737164e-04 -1.25636802e-03
-3.65563489e-04 3.06710207e-04 -1.36382262e-03
-3.00824721e-04 3.47424124e-04 -1.38866450e-03
-3.11920059e-04 1.68936010e-04 -1.31220604e-03
-7.53091388e-05 4.41065513e-04 -1.43664851e-03
-1.17261030e-04 1.75406357e-04 -1.34801275e-03
-2.61100703e-05 3.75294574e-04 -1.43105758e-03
4.22425892e-05 3.14305941e-04 -1.42021763e-03
2.56880279e-04 4.21496545e-04 -1.42943133e-03
3.55682327e-04 2.78673755e-04 -1.37135050e-03
4.40785635e-04 5.43147429e-04 -1.38200243e-03
7.10978126e-04 3.32702120e-04 -1.22278897e-03
7.32364021e-04 2.59482169e-04 -1.18579618e-03
8.03684549e-04 2.69495197e-04 -1.14367093e-03
8.79162743e-04 2.53901749e-04 -1.07754557e-03
-1.18890722e-03 4.94442604e-04 -7.67498934e-04
-1.00674474e-03 6.21701122e-04 -1.00141546e-03
-1.02900925e-03 4.34905497e-04 -9.70041269e-04
-8.11564033e-04 5.59526502e-04 -1.17790169e-03
-6.59865066e-04 4.83856295e-04 -1.27300285e-03
-7.21969341e-04 4.36150921e-04 -1.23219964e-03
-3.72289289e-04 3.98617724e-04 -1.38074438e-03
-2.93782283e-04 4.33951917e-04 -1.39939517e-03
-2.25215244e-04 3.77355746e-04 -1.40535943e-03
-1.37261374e-04 4.99206694e-04 -1.43323042e-03
-6.23459282e-05 5.33811802e-04 -1.44461263e-03
-1.68377279e-04 3.10318695e-04 -1.40001695e-03
2.38547464e-06 4.78228151e-04 -1.44606141e-03
2.32581568e-04 5.78142699e-04 -1.43909062e-03
4.55556375e-05 4.08797146e-04 -1.44056077e-03
3.33611068e-04 4.39496717e-04 -1.41287493e-03
3.56061766e-04 5.35575596e-04 -1.41120124e-03
5.83259546e-04 2.77289224e-04 -1.28172015e-03
7.83856514e-04 3.40510354e-04 -1.17749458e-03
8.56817751e-04 3.27787935e-04 -1.12265445e-03
8.35232180e-04 4.08258576e-04 -1.15404417e-03
-1.19236078e-03 6.07914225e-04 -7.73200870e-04
-1.10082440e-03 5.33147544e-04 -8.93498524e-04
-9.51713235e-04 6.63366758e-04 -1.05106624e-03
-9.90677288e-04 5.37673270e-04 -1.01628891e-03
-7.35875380e-04 5.21537855e-04 -1.22920561e-03
-5.82712354e-04 4.47693513e-04 -1.31109857e-03
-5.05556012e-04 4.03649349e-04 -1.33938836e-03
-4.43748976e-04 4.47722642e-04 -1.36692040e-03
-2.11902794e-04 4.66228945e-04 -1.41798510e-03
-2.95296799e-04 5.18226115e-04 -1.40662377e-03
-2.22351327e-04 5.52027831e-04 -1.42242113e-03
-9.24397442e-05 3.34129623e-04 -1.41703140e-03
1.97323091e-04 4.84077291e-04 -1.44268504e-03
2.79523694e-04 5.07700236e-04 -1.43117169e-03
1.16635286e-04 2.66684714e-04 -1.40620711e-03
2.29586048e-04 7.41621855e-04 -1.41873156e-03
3.09931935e-04 6.02545589e-04 -1.42307618e-03
4.78190720e-04 4.53101492e-04 -1.36246884e-03
6.40056918e-04 3.47465959e-04 -1.26815076e-03
7.63527123e-04 4.19094815e-04 -1.20328628e-03
9.43508795e-04 4.64684454e-04 -1.07896993e-03
-1.15355313e-03 5.56228440e-04 -8.25025074e-04
-1.13796511e-03 4.73339877e-04 -8.38092333e-04
-1.01490478e-03 7.02237203e-04 -9.84849421e-04
-8.83134949e-04 6.00121035e-04 -1.11804806e-03
-7.57164340e-04 6.00411278e-04 -1.21450410e-03
-5.98316751e-04 5.31646356e-04 -1.30803921e-03
-5.19227204e-04 4.92177060e-04 -1.34142530e-03
-3.72161407e-04 4.87826769e-04 -1.38823032e-03
-4.51846680e-04 5.34292045e-04 -1.36669346e-03
-3.76868585e-04 5.69188437e-04 -1.38872367e-03
-1.46816498e-04 5.84027794e-04 -1.43484550e-03
1.28744023e-05 5.69666640e-04 -1.45098799e-03
7.87530547e-05 5.21889270e-04 -1.45152993e-03
1.56262446e-04 5.53311765e-04 -1.45017627e-03
1.73758695e-04 6.40787659e-04 -1.44261280e-03
5.14772236e-04 5.26841318e-04 -1.34831703e-03
4.79048782e-04 6.17810797e-04 -1.36678831e-03
5.66159110e-04 3.50651878e-04 -1.31024072e-03
5.49928341e-04 4.32077963e-04 -1.32582160e-03
8.77669877e-04 4.79736118e-04 -1.13377104e-03
8.51141452e-04 5.68535302e-04 -1.16213447e-03
-1.19283218e-03 7.01740977e-04 -7.58936647e-04
-1.11418226e-03 6.16446341e-04 -8.80938978e-04
-1.07031419e-03 6.73517695e-04 -9.31092148e-04
-9.40311549e-04 5.80982819e-04 -1.06694913e-03
-6.75787917e-04 5.64144777e-04 -1.26561413e-03
-5.35573217e-04 5.76949780e-04 -1.33619554e-03
-5.46509794e-04 6.59252705e-04 -1.32397138e-03
-4.66711887e-04 6.16120957e-04 -1.36068153e-03
-3.92499368e-04 6.47725146e-04 -1.38171739e-03
-3.00003280e-04 6.04774695e-04 -1.40630039e-03
-2.21987588e-04 6.37225831e-04 -1.42059158e-03
-7.49756244e-05 6.16974744e-04 -1.44321334e-03
-1.62250619e-06 6.50253559e-04 -1.44590168e-03
9.14528769e-05 6.08616497e-04 -1.44988061e-03
1.52432585e-04 7.17311903e-04 -1.43265642e-03
3.94927118e-04 6.15465307e-04 -1.39699076e-03
3.41678380e-04 6.77867394e-04 -1.40633766e-03
5.54973327e-04 6.00904902e-04 -1.33457012e-03
6.25059976e-04 4.34168300e-04 -1.28754359e-03
8.06806526e-04 4.95306103e-04 -1.18395470e-03
8.18669170e-04 6.52137569e-04 -1.18433170e-03
-1.15497072e-03 6.56536979e-04 -8.23489186e-04
-1.11197244e-03 7.13967417e-04 -8.71406047e-04
-1.05727606e-03 7.59675746e-04 -9.26137216e-04
-7.65653419e-04 6.87464875e-04 -1.19808350e-03
-6.94978014e-04 6.44004571e-04 -1.24839323e-03
-6.13832839e-04 6.14018815e-04 -1.29673235e-03
-5.57736061e-04 7.37997297e-04 -1.30455118e-03
-4.73184551e-04 6.94965313e-04 -1.35011399e-03
-4.00031849e-04 7.31710963e-04 -1.36969744e-03
-3.19695613e-04 6.84892403e-04 -1.39775819e-03
-2.43180573e-04 7.16291696e-04 -1.41033440e-03
-1.48355581e-04 6.72077231e-04 -1.42986307e-03
-7.08757682e-05 7.06067493e-04 -1.43451952e-03
3.27442173e-06 7.38609266e-04 -1.43246348e-03
7.46625664e-05 6.86367811e-04 -1.44139729e-03
3.08433401e-04 7.51634158e-04 -1.40123994e-03
3.35049902e-04 8.30258022e-04 -1.37204775e-03
4.28877986e-04 6.92142313e-04 -1.37710551e-03
5.87241626e-04 5.13009144e-04 -1.31223736e-03
6.93199913e-04 4.16858896e-04 -1.24521569e-03
7.81567448e-04 5.75819026e-04 -1.20724645e-03
-1.14999136e-03 7.49647137e-04 -8.09886450e-04
-1.04105952e-03 8.44769309e-04 -9.09595252e-04
-9.57561989e-04 7.41503273e-04 -1.03332800e-03
-8.26481642e-04 6.45652702e-04 -1.15890827e-03
-7.67528636e-04 7.70740835e-04 -1.17875295e-03
-6.29218934e-04 6.91842505e-04 -1.27656053e-03
-6.32427493e-04 7.72905333e-04 -1.25696101e-03
-4.84404162e-04 7.74009762e-04 -1.32853063e-03
-4.11949739e-04 8.10602287e-04 -1.34727588e-03
-3.26238197e-04 7.67077181e-04 -1.38377410e-03
-2.47692893e-04 7.96380443e-04 -1.39495152e-03
-1.66100891e-04 7.50825657e-04 -1.41649066e-03
-9.10181448e-05 7.84743671e-04 -1.41811804e-03
-1.85661026e-05 8.18455707e-04 -1.41224959e-03
8.30123954e-05 7.72023286e-04 -1.42144278e-03
2.52632110e-04 8.21252894e-04 -1.39259112e-03
4.21669850e-04 8.40901703e-04 -1.34367754e-03
3.89428777e-04 7.62754587e-04 -1.37579241e-03
6.29166054e-04 5.88588064e-04 -1.29646178e-03
7.34806669e-04 5.01695133e-04 -1.22792481e-03
7.73487455e-04 7.31970794e-04 -1.20641520e-03
-1.09705642e-03 8.03482058e-04 -8.61392265e-04
-1.02245604e-03 9.26738809e-04 -8.84488976e-04
[...]
POINT_DATA 20213
SCALARS pressure double 1
LOOKUP_TABLE default
1.00575271e+03
0.00000000e+00
9.38085602e+02
1.00575516e+03
0.00000000e+00
1.15701349e+03
0.00000000e+00
0.00000000e+00
1.26988951e+03
1.03383071e+03
1.01884705e+03
6.78811160e+02
1.56318667e+03
8.57335471e+02
0.00000000e+00
4.89158038e+02
2.29137039e+03
0.00000000e+00
1.15525053e+03
9.58995601e+02
8.91792848e+02
0.00000000e+00
0.00000000e+00
0.00000000e+00
0.00000000e+00
0.00000000e+00
0.00000000e+00
9.41082686e+02
0.00000000e+00
1.10106238e+03
9.20246084e+02
1.09815915e+03
8.13249148e+02
0.00000000e+00
0.00000000e+00
8.98699322e+02
0.00000000e+00
0.00000000e+00
8.34094487e+02
6.02334049e+02
0.00000000e+00
0.00000000e+00
0.00000000e+00
0.00000000e+00
1.27768985e+03
1.04478112e+03
0.00000000e+00
1.17234976e+03
0.00000000e+00
0.00000000e+00
1.28818932e+03
1.33175341e+03
1.33159425e+03
0.00000000e+00
0.00000000e+00
0.00000000e+00
7.89930236e+02
5.83193813e+02
0.00000000e+00
0.00000000e+00
0.00000000e+00
0.00000000e+00
3.68762517e+02
0.00000000e+00
0.00000000e+00
1.07765764e+03
0.00000000e+00
9.55836757e+02
0.00000000e+00
0.00000000e+00
1.47912356e+03
1.52330359e+03
1.12752367e+03
1.16933236e+03
9.54414105e+02
1.00383701e+03
1.03195861e+03
0.00000000e+00
0.00000000e+00
0.00000000e+00
0.00000000e+00
4.47766191e+02
0.00000000e+00
0.00000000e+00
1.08748729e+03
1.26765794e+03
0.00000000e+00
0.00000000e+00
9.57465474e+02
0.00000000e+00
1.50037669e+03
1.53862913e+03
1.45455678e+03
1.22023808e+03
8.99273892e+02
1.29832102e+03
0.00000000e+00
9.42836574e+02
9.85272119e+02
6.57183880e+02
7.14727298e+02
0.00000000e+00
0.00000000e+00
0.00000000e+00
0.00000000e+00
1.22064807e+03
0.00000000e+00
0.00000000e+00
1.07909817e+03
0.00000000e+00
0.00000000e+00
1.17580342e+03
1.42840618e+03
1.35812916e+03
0.00000000e+00
0.00000000e+00
0.00000000e+00
0.00000000e+00
0.00000000e+00
1.02468764e+03
6.38833535e+02
8.01174776e+02
0.00000000e+00
0.00000000e+00
6.85712343e+02
0.00000000e+00
1.16690093e+03
1.03536319e+03
1.44199056e+03
1.20312309e+03
0.00000000e+00
9.37866929e+02
1.31603663e+03
1.50837849e+03
1.43980557e+03
1.38347844e+03
1.00396719e+03
7.75739098e+02
8.39414884e+02
0.00000000e+00
9.37864137e+02
4.40169820e+02
0.00000000e+00
0.00000000e+00
4.94262718e+02
5.57921506e+02
7.76352600e+02
0.00000000e+00
0.00000000e+00
1.33105393e+03
1.14383543e+03
9.57533465e+02
1.08116781e+03
0.00000000e+00
1.18546463e+03
1.25404058e+03
1.34740369e+03
1.09704834e+03
0.00000000e+00
0.00000000e+00
9.88603067e+02
7.76711402e+02
6.86079357e+02
0.00000000e+00
0.00000000e+00
5.37041646e+02
5.83162186e+02
0.00000000e+00
1.29856171e+03
1.41242035e+03
1.36507778e+03
0.00000000e+00
0.00000000e+00
0.00000000e+00
0.00000000e+00
8.88008959e+02
0.00000000e+00
1.09107386e+03
0.00000000e+00
0.00000000e+00
0.00000000e+00
0.00000000e+00
7.44193781e+02
0.00000000e+00
0.00000000e+00
0.00000000e+00
0.00000000e+00
0.00000000e+00
0.00000000e+00
1.41166288e+03
1.23295966e+03
1.34558088e+03
1.04369527e+03
1.29000264e+03
0.00000000e+00
0.00000000e+00
0.00000000e+00
0.00000000e+00
0.00000000e+00
6.87135204e+02
5.73182554e+02
0.00000000e+00
0.00000000e+00
0.00000000e+00
0.00000000e+00
0.00000000e+00
5.98166816e+02
0.00000000e+00
6.59389799e+02
0.00000000e+00
1.39940283e+03
1.09610852e+03
1.31254693e+03
1.36124165e+03
0.00000000e+00
1.04395383e+03
0.00000000e+00
0.00000000e+00
0.00000000e+00
0.00000000e+00
1.06323145e+03
0.00000000e+00
0.00000000e+00
0.00000000e+00
0.00000000e+00
0.00000000e+00
0.00000000e+00
0.00000000e+00
0.00000000e+00
0.00000000e+00
0.00000000e+00
1.38745546e+03
1.27362368e+03
1.10432083e+03
1.30744237e+03
1.24482396e+03
1.15659073e+03
8.91445865e+02
7.73112665e+02
0.00000000e+00
0.00000000e+00
0.00000000e+00
0.00000000e+00
0.00000000e+00
0.00000000e+00
0.00000000e+00
0.00000000e+00
8.52561716e+02
1.02214620e+03
1.19996746e+03
0.00000000e+00
1.00017407e+03
0.00000000e+00
8.50717545e+02
0.00000000e+00
9.51211047e+02
1.09926741e+03
0.00000000e+00
7.76279396e+02
0.00000000e+00
0.00000000e+00
0.00000000e+00
0.00000000e+00
0.00000000e+00
6.27865548e+02
0.00000000e+00
0.00000000e+00
1.05899397e+03
0.00000000e+00
1.22888408e+03
1.22167331e+03
1.21164915e+03
0.00000000e+00
0.00000000e+00
0.00000000e+00
0.00000000e+00
0.00000000e+00
0.00000000e+00
0.00000000e+00
0.00000000e+00
5.06641646e+02
0.00000000e+00
0.00000000e+00
0.00000000e+00
0.00000000e+00
0.00000000e+00
0.00000000e+00
0.00000000e+00
8.22202823e+02
1.12468060e+03
1.31256151e+03
1.16463240e+03
0.00000000e+00
9.55204190e+02
0.00000000e+00
5.17203495e+02
0.00000000e+00
0.00000000e+00
0.00000000e+00
0.00000000e+00
0.00000000e+00
0.00000000e+00
5.72982220e+02
6.19603162e+02
0.00000000e+00
9.95155434e+02
8.23186451e+02
7.21457426e+02
7.81929352e+02
9.91201793e+02
0.00000000e+00
1.03418846e+03
1.18500348e+03
0.00000000e+00
0.00000000e+00
8.97068882e+02
0.00000000e+00
0.00000000e+00
4.33526838e+02
0.00000000e+00
0.00000000e+00
4.43607034e+02
0.00000000e+00
0.00000000e+00
0.00000000e+00
0.00000000e+00
0.00000000e+00
8.70219814e+02
0.00000000e+00
7.96670387e+02
0.00000000e+00
1.07226865e+03
1.10104339e+03
1.00927574e+03
0.00000000e+00
6.64956573e+02
7.97515247e+02
0.00000000e+00
0.00000000e+00
0.00000000e+00
0.00000000e+00
0.00000000e+00
4.93718472e+02
6.42842176e+02
0.00000000e+00
8.36174649e+02
9.20216581e+02
1.04026271e+03
1.02409969e+03
8.79555512e+02
0.00000000e+00
0.00000000e+00
1.01638296e+03
1.05299882e+03
9.81375936e+02
9.49826021e+02
8.75911481e+02
7.30931412e+02
6.82801562e+02
6.70092213e+02
0.00000000e+00
0.00000000e+00
0.00000000e+00
5.12561231e+02
0.00000000e+00
0.00000000e+00
0.00000000e+00
1.02346377e+03
1.07865830e+03
9.03686429e+02
0.00000000e+00
0.00000000e+00
8.12637865e+02
9.68310840e+02
1.00543999e+03
0.00000000e+00
0.00000000e+00
9.39740646e+02
0.00000000e+00
6.41878851e+02
0.00000000e+00
6.67315110e+02
6.24621769e+02
0.00000000e+00
0.00000000e+00
5.39001197e+02
0.00000000e+00
0.00000000e+00
9.37728803e+02
9.56334672e+02
0.00000000e+00
0.00000000e+00
0.00000000e+00
0.00000000e+00
9.27703196e+02
0.00000000e+00
0.00000000e+00
0.00000000e+00
0.00000000e+00
0.00000000e+00
0.00000000e+00
0.00000000e+00
6.08591610e+02
0.00000000e+00
0.00000000e+00
6.63658383e+02
0.00000000e+00
0.00000000e+00
8.87369452e+02
0.00000000e+00
8.34289319e+02
0.00000000e+00
0.00000000e+00
0.00000000e+00
0.00000000e+00
7.78450113e+02
7.81438592e+02
0.00000000e+00
0.00000000e+00
0.00000000e+00
0.00000000e+00
0.00000000e+00
0.00000000e+00
0.00000000e+00
0.00000000e+00
0.00000000e+00
6.97580813e+02
7.84994851e+02
0.00000000e+00
0.00000000e+00
0.00000000e+00
7.35979307e+02
0.00000000e+00
0.00000000e+00
0.00000000e+00
0.00000000e+00
0.00000000e+00
0.00000000e+00
0.00000000e+00
0.00000000e+00
0.00000000e+00
0.00000000e+00
8.16629433e+02
1.31736033e+03
7.10305731e+02
9.80647110e+02
9.31554626e+02
1.71917563e+03
0.00000000e+00
1.28139414e+03
1.41174972e+03
1.76429818e+03
2.05318160e+03
9.75648865e+02
1.24655461e+03
1.02504301e+03
1.65281438e+03
0.00000000e+00
1.03480617e+03
9.75828817e+02
0.00000000e+00
0.00000000e+00
9.98563844e+02
1.32411555e+03
9.63234129e+02
2.14913815e+03
6.31869612e+02
1.51183462e+03
1.02840115e+03
1.43246019e+03
1.01070409e+03
1.75991681e+03
1.99898178e+03
2.23546952e+03
1.32088763e+03
2.03145775e+03
2.01370138e+03
1.56348547e+03
1.22006373e+03
1.21352442e+03
1.52108083e+03
1.21971287e+03
0.00000000e+00
9.06311931e+02
1.37472746e+03
1.12818521e+03
1.79565054e+03
1.08021665e+03
1.02151514e+03
2.19248906e+03
0.00000000e+00
1.01504831e+03
1.41584068e+03
1.38410546e+03
0.00000000e+00
1.24643511e+03
1.02899747e+03
2.07425818e+03
9.91204852e+02
1.25823117e+03
7.13532664e+02
1.20767107e+03
1.02061463e+03
0.00000000e+00
0.00000000e+00
1.11624473e+03
2.13243143e+03
1.26865763e+03
1.23232450e+03
1.61516037e+03
5.83366342e+02
1.42454128e+03
7.98081265e+02
1.01888047e+03
1.45453606e+03
1.60202279e+03
2.11385804e+03
1.33804981e+03
1.15532364e+03
9.46068515e+02
1.63070253e+03
1.79062736e+03
1.18821550e+03
1.92638460e+03
0.00000000e+00
0.00000000e+00
1.10386352e+03
1.98311384e+03
2.11394501e+03
2.02593438e+03
1.98445306e+03
1.86969313e+03
1.08481490e+03
9.60049425e+02
1.91949109e+03
1.86068515e+03
1.96232500e+03
1.50476003e+03
1.22331057e+03
0.00000000e+00
2.14636980e+03
9.40573867e+02
1.18463734e+03
1.24567404e+03
7.27934210e+02
0.00000000e+00
1.12689970e+03
1.70984449e+03
8.39285789e+02
9.90576364e+02
2.03028030e+03
0.00000000e+00
2.22193041e+03
1.42725374e+03
9.90415652e+02
1.09789193e+03
1.97907774e+03
1.10521457e+03
1.50302662e+03
1.57155996e+03
1.42403456e+03
8.03472734e+02
1.41427109e+03
9.80598999e+02
9.50241485e+02
1.60042387e+03
0.00000000e+00
1.03313263e+03
1.44027998e+03
1.38564341e+03
1.89936067e+03
1.80730792e+03
6.92906523e+02
2.07506572e+03
1.31604986e+03
9.09068238e+02
1.81430194e+03
1.11813197e+03
1.56234546e+03
1.98877301e+03
1.35847311e+03
1.27096921e+03
1.41637234e+03
1.24115240e+03
8.69068464e+02
1.12091243e+03
8.07743369e+02
6.75839963e+02
1.17984696e+03
7.94791372e+02
0.00000000e+00
1.47170565e+03
1.49121355e+03
1.92860867e+03
1.57064771e+03
2.14772158e+03
1.46113139e+03
2.00863678e+03
1.27560659e+03
1.21073616e+03
2.10965425e+03
1.30144110e+03
1.91291356e+03
1.98412199e+03
7.16004895e+02
8.39039518e+02
0.00000000e+00
8.07442064e+02
6.97693418e+02
1.14021465e+03
2.05673279e+03
1.24545452e+03
1.65599859e+03
9.62477012e+02
1.83097590e+03
1.12373977e+03
1.95663382e+03
2.11897784e+03
1.31990591e+03
1.97253762e+03
2.12454387e+03
8.96320013e+02
1.53605691e+03
8.19434599e+02
1.02421780e+03
1.89955640e+03
1.93145457e+03
0.00000000e+00
8.98480428e+02
7.65773441e+02
1.19270238e+03
2.23847869e+03
1.34376092e+03
1.15967873e+03
8.86789763e+02
8.47944127e+02
9.34820661e+02
8.14884363e+02
1.94361245e+03
1.17004459e+03
1.16239921e+03
1.15996475e+03
2.07076249e+03
1.18307358e+03
9.52256498e+02
1.04273427e+03
1.01876268e+03
9.67519319e+02
0.00000000e+00
6.72843683e+02
0.00000000e+00
1.30025448e+03
1.77600040e+03
1.42856394e+03
1.04025943e+03
7.83442831e+02
9.21561830e+02
1.03344471e+03
1.61704420e+03
1.58126298e+03
1.60546975e+03
1.15456202e+03
1.90318040e+03
1.20588160e+03
1.80152841e+03
7.22440651e+02
8.43345466e+02
1.56272244e+03
1.90872080e+03
0.00000000e+00
1.21288016e+03
0.00000000e+00
1.30864249e+03
1.09247192e+03
1.30717308e+03
7.79653889e+02
7.44031038e+02
7.58816651e+02
1.29605602e+03
9.90555768e+02
2.01261933e+03
1.32284646e+03
2.10294268e+03
1.20874636e+03
1.55817257e+03
1.00047854e+03
1.44326622e+03
7.32829672e+02
6.77226388e+02
5.80238856e+02
1.02727810e+03
8.43373185e+02
8.21657796e+02
1.13399019e+03
1.73002499e+03
0.00000000e+00
1.76617354e+03
1.77977819e+03
6.62488800e+02
1.05085055e+03
1.91812717e+03
1.81959309e+03
1.10834059e+03
1.18240582e+03
1.99656013e+03
8.87084003e+02
1.92888614e+03
9.78360217e+02
9.29158356e+02
9.19598982e+02
1.95167051e+03
0.00000000e+00
1.89839908e+03
0.00000000e+00
9.66893972e+02
7.55348938e+02
1.06126510e+03
1.46077442e+03
7.60459221e+02
7.25595365e+02
1.45236943e+03
1.25021957e+03
1.64216001e+03
7.92829673e+02
1.09348640e+03
8.86784348e+02
1.07988910e+03
1.02831815e+03
8.07154891e+02
9.36692218e+02
1.12218353e+03
1.18138961e+03
8.64698238e+02
6.33060581e+02
6.31390387e+02
1.10770568e+03
8.55519311e+02
1.01506232e+03
1.35873842e+03
1.44901922e+03
1.17455925e+03
1.75292407e+03
2.09089394e+03
1.88357818e+03
8.44076628e+02
2.09423025e+03
8.77110511e+02
8.88329201e+02
9.47576051e+02
1.28907195e+03
1.15161667e+03
1.77040353e+03
6.38278878e+02
8.86776670e+02
5.91080808e+02
5.85916214e+02
0.00000000e+00
1.18451676e+03
1.42805160e+03
7.74307345e+02
8.18824745e+02
0.00000000e+00
1.09230445e+03
8.63855924e+02
9.48706637e+02
1.08690990e+03
1.16587935e+03
1.74242375e+03
1.03151075e+03
7.61652544e+02
6.74278690e+02
1.00152478e+03
1.48662422e+03
1.00262528e+03
1.22485632e+03
5.79723195e+02
8.66206859e+02
0.00000000e+00
1.32569903e+03
1.62567392e+03
9.64954532e+02
2.06864742e+03
9.98266133e+02
1.19808335e+03
6.73675665e+02
1.53935862e+03
8.24733856e+02
7.73242483e+02
8.10730693e+02
1.18249868e+03
1.05059176e+03
1.80455129e+03
1.06921582e+03
1.84620472e+03
9.87298064e+02
1.63547344e+03
7.59017794e+02
5.85066489e+02
0.00000000e+00
1.15487314e+03
1.09851834e+03
1.42242251e+03
1.08106846e+03
1.64188412e+03
1.30805071e+03
1.08850897e+03
1.30936568e+03
8.70551007e+02
1.16379484e+03
8.50909882e+02
1.71830341e+03
1.57016882e+03
9.75682761e+02
6.64797659e+02
9.85152918e+02
1.16717140e+03
6.55912820e+02
6.71832614e+02
0.00000000e+00
6.54555909e+02
1.20774862e+03
9.96896745e+02
1.18066826e+03
1.61941672e+03
1.30566701e+03
1.15563449e+03
7.54480935e+02
9.16510508e+02
8.66533773e+02
9.12636042e+02
1.10708532e+03
0.00000000e+00
0.00000000e+00
6.92036928e+02
1.04082667e+03
9.65741844e+02
7.15497949e+02
7.49063229e+02
1.26277141e+03
0.00000000e+00
0.00000000e+00
1.95491466e+03
1.06392609e+03
1.30314208e+03
1.15941974e+03
1.31181700e+03
1.24633054e+03
1.00844695e+03
1.17639478e+03
8.01539642e+02
1.64695831e+03
1.06996607e+03
1.83131629e+03
9.04734301e+02
8.96068792e+02
7.90087702e+02
8.60291806e+02
9.79230814e+02
1.25682600e+03
1.81600259e+03
0.00000000e+00
6.56626299e+02
6.69055621e+02
6.23648397e+02
0.00000000e+00
0.00000000e+00
0.00000000e+00
0.00000000e+00
0.00000000e+00
0.00000000e+00
0.00000000e+00
6.78800929e+02
0.00000000e+00
0.00000000e+00
0.00000000e+00
0.00000000e+00
0.00000000e+00
0.00000000e+00
5.13248424e+02
0.00000000e+00
0.00000000e+00
4.77214026e+02
7.08834207e+02
6.66713578e+02
0.00000000e+00
0.00000000e+00
7.41739095e+02
0.00000000e+00
8.05260423e+02
0.00000000e+00
9.48548684e+02
5.91258218e+02
6.77326141e+02
1.33785841e+03
9.57188189e+02
9.70636475e+02
1.26665193e+03
0.00000000e+00
1.06368455e+03
6.84838350e+02
0.00000000e+00
5.63250844e+02
8.38727323e+02
0.00000000e+00
1.78850545e+03
1.43729114e+03
1.20012679e+03
1.25839759e+03
9.09466237e+02
9.96225453e+02
1.06583427e+03
2.20537031e+03
0.00000000e+00
1.28755345e+03
1.39830178e+03
7.47565073e+02
9.94252167e+02
1.06743554e+03
1.73522562e+03
2.01811271e+03
1.90853324e+03
1.20069131e+03
7.86366788e+02
7.37526872e+02
9.22032634e+02
1.05996898e+03
1.79508279e+03
2.23678056e+03
1.78938861e+03
2.17778206e+03
2.10710508e+03
1.03665391e+03
1.54226929e+03
1.90095945e+03
7.82640800e+02
1.36923927e+03
1.17022860e+03
1.28138092e+03
1.28866467e+03
2.14480298e+03
8.03567917e+02
9.35206098e+02
7.16231626e+02
1.24935550e+03
0.00000000e+00
9.58139346e+02
8.36475156e+02
1.97872294e+03
1.03718824e+03
2.04034485e+03
1.11814186e+03
1.83691553e+03
1.72018367e+03
1.13790871e+03
7.83224584e+02
8.99869750e+02
1.75483675e+03
1.86339008e+03
4.70907983e+02
2.01152281e+03
1.46425035e+03
1.24157290e+03
1.49723941e+03
9.07990849e+02
1.28159371e+03
0.00000000e+00
8.86340940e+02
1.31630099e+03
9.03788981e+02
1.30544096e+03
1.70891668e+03
2.07443439e+03
1.31911318e+03
1.72360863e+03
1.37066694e+03
1.93673470e+03
1.62874347e+03
6.59543053e+02
1.38741979e+03
2.19155028e+03
8.94104242e+02
1.13481038e+03
1.47697882e+03
8.26729847e+02
2.21227386e+03
1.52977963e+03
0.00000000e+00
0.00000000e+00
1.36196375e+03
9.11923481e+02
1.45474943e+03
2.22770255e+03
1.41483110e+03
1.11210953e+03
2.14862218e+03
1.10718077e+03
1.92576705e+03
9.31729401e+02
1.78481163e+03
0.00000000e+00
6.87165600e+02
2.18875122e+03
1.53318183e+03
1.14517346e+03
7.53574269e+02
1.59116806e+03
1.00760676e+03
0.00000000e+00
0.00000000e+00
1.50701622e+03
1.76163124e+03
1.36924641e+03
1.14394509e+03
1.65088753e+03
1.48988169e+03
1.83662547e+03
1.04364887e+03
2.23077077e+03
1.45490468e+03
9.98747359e+02
1.25710147e+03
8.86974420e+02
1.85107624e+03
1.75856911e+03
2.08578274e+03
2.06008472e+03
1.18638734e+03
9.99444022e+02
0.00000000e+00
0.00000000e+00
9.21340802e+02
2.01569304e+03
2.14044890e+03
2.15534733e+03
1.91358311e+03
6.43219081e+02
6.47206851e+02
1.30498672e+03
2.18056875e+03
2.20351525e+03
1.81895853e+03
2.18503918e+03
2.25121319e+03
2.02775397e+03
1.04619506e+03
1.99558075e+03
2.06692737e+03
1.89386193e+03
0.00000000e+00
5.14107259e+02
9.67740974e+02
1.04396108e+03
1.02274880e+03
1.02601684e+03
2.07752419e+03
1.67651301e+03
2.00366701e+03
1.61596064e+03
1.34387497e+03
1.67257255e+03
2.27373148e+03
1.76422255e+03
1.24806156e+03
9.72195556e+02
1.99200748e+03
8.33274541e+02
1.74870164e+03
1.44736759e+03
8.05549115e+02
6.67881633e+02
0.00000000e+00
0.00000000e+00
0.00000000e+00
2.18268460e+03
7.96234392e+02
2.01782550e+03
1.86931160e+03
2.24774431e+03
7.43007011e+02
1.38403922e+03
1.64729094e+03
1.52552816e+03
1.43489111e+03
1.80516086e+03
8.72621081e+02
1.48796319e+03
6.34207192e+02
1.16059055e+03
8.95227175e+02
7.06886533e+02
0.00000000e+00
0.00000000e+00
1.01953247e+03
0.00000000e+00
1.90851979e+03
8.02832926e+02
2.01234345e+03
1.32903993e+03
1.80203668e+03
1.32613621e+03
1.90448497e+03
1.99835852e+03
1.64644366e+03
2.02242693e+03
1.02837170e+03
1.89408865e+03
1.75841797e+03
1.00722747e+03
1.81751487e+03
9.60874621e+02
1.29030808e+03
5.66508217e+02
0.00000000e+00
1.18430709e+03
9.84569243e+02
1.86518799e+03
9.91007026e+02
2.08483153e+03
6.71000867e+02
1.54321078e+03
1.00200207e+03
1.98750135e+03
1.02304523e+03
1.15123078e+03
1.19631041e+03
1.44476563e+03
1.16655571e+03
1.19216069e+03
1.11995998e+03
1.17448411e+03
1.20423792e+03
1.62157301e+03
6.68418270e+02
0.00000000e+00
1.22524193e+03
0.00000000e+00
1.47232756e+03
1.05459331e+03
1.85925683e+03
8.96458483e+02
1.88747663e+03
2.13930964e+03
1.52012445e+03
1.98825267e+03
1.55459274e+03
2.04121888e+03
8.54440833e+02
2.03236445e+03
6.41887206e+02
1.77408386e+03
1.66400578e+03
1.21567624e+03
1.65926071e+03
7.29687953e+02
0.00000000e+00
1.27869756e+03
1.13547016e+03
1.66326225e+03
1.35699434e+03
1.41137322e+03
1.60400122e+03
1.70286182e+03
1.27965549e+03
1.51097595e+03
1.84802603e+03
1.52220547e+03
1.93992262e+03
1.90676270e+03
1.99943470e+03
6.86776755e+02
9.20240998e+02
1.73773075e+03
1.52000955e+03
1.01842624e+03
0.00000000e+00
0.00000000e+00
1.16210704e+03
1.95558148e+03
2.00277554e+03
1.77624658e+03
2.05035253e+03
2.02771977e+03
1.35283857e+03
7.39462031e+02
1.86722504e+03
1.62633122e+03
1.32148225e+03
1.88585403e+03
1.18340534e+03
7.13515566e+02
1.92664741e+03
1.86215997e+03
7.17406575e+02
1.58695210e+03
1.82486662e+03
5.65033546e+02
0.00000000e+00
1.14285386e+03
1.49465735e+03
1.93277140e+03
1.91700294e+03
1.63604521e+03
1.35128556e+03
2.10852297e+03
1.27389279e+03
1.91093957e+03
1.51370645e+03
1.20898379e+03
1.86112462e+03
1.69294694e+03
1.18728099e+03
1.47615653e+03
1.93350089e+03
1.83993073e+03
1.48844508e+03
1.29910550e+03
6.67184398e+02
0.00000000e+00
0.00000000e+00
2.01700155e+03
7.33374078e+02
1.76337716e+03
1.10472527e+03
1.12247809e+03
9.54444495e+02
1.24882778e+03
1.37100632e+03
1.86959308e+03
9.98127989e+02
1.14848792e+03
6.87356156e+02
1.06222979e+03
1.50204933e+03
6.85809825e+02
1.65610715e+03
1.89256968e+03
1.73529418e+03
1.23316177e+03
0.00000000e+00
5.96986359e+02
1.14409779e+03
1.57389991e+03
1.23126676e+03
9.89260021e+02
1.95884607e+03
1.99186115e+03
1.58569663e+03
1.19841341e+03
8.87980389e+02
1.01671029e+03
8.86061959e+02
7.85070539e+02
1.11514237e+03
1.28488975e+03
1.85702738e+03
1.78263634e+03
1.60114170e+03
1.55046198e+03
1.01919142e+03
7.84357522e+02
0.00000000e+00
1.17102177e+03
1.94944538e+03
1.90125429e+03
1.54542451e+03
1.38088928e+03
1.29544027e+03
1.82717398e+03
1.82977350e+03
1.53289726e+03
1.27686876e+03
1.81671321e+03
1.75818097e+03
1.34711094e+03
1.24688648e+03
1.76182636e+03
1.84052601e+03
1.79278725e+03
1.70523312e+03
1.45779681e+03
0.00000000e+00
0.00000000e+00
1.15545516e+03
1.09294375e+03
1.78571845e+03
1.83122501e+03
1.79995601e+03
1.40524338e+03
6.29555832e+02
0.00000000e+00
0.00000000e+00
0.00000000e+00
7.13218878e+02
0.00000000e+00
6.56431730e+02
1.11864699e+03
8.31007566e+02
1.26171893e+03
9.33128761e+02
1.72516220e+03
1.09653560e+03
7.95490004e+02
0.00000000e+00
7.21514301e+02
7.76363094e+02
7.65829799e+02
0.00000000e+00
0.00000000e+00
7.81534527e+02
5.27156099e+02
0.00000000e+00
0.00000000e+00
0.00000000e+00
0.00000000e+00
6.41910765e+02
0.00000000e+00
4.87533360e+02
0.00000000e+00
0.00000000e+00
0.00000000e+00
0.00000000e+00
0.00000000e+00
0.00000000e+00
0.00000000e+00
1.36891318e+03
0.00000000e+00
2.05905712e+03
1.07713261e+03
1.34743956e+03