# vtk DataFile Version 3.0
MPS 3D Simulation Step 9200
ASCII
DATASET UNSTRUCTURED_GRID
POINTS 20213 double
-1.19262399e-03 3.30734242e-04 -7.61784441e-04
-1.06379517e-03 1.55730142e-04 -8.11548945e-04
-9.63536914e-04 2.98005914e-04 -1.00792556e-03
-9.20785667e-04 3.44759281e-04 -1.06166598e-03
-8.85421352e-04 1.53455103e-04 -9.98878120e-04
-8.75983334e-04 3.92261726e-04 -1.11035376e-03
-6.58317078e-04 2.55440819e-04 -1.20210644e-03
-5.17811436e-04 2.64681484e-04 -1.27268683e-03
-4.84701743e-04 4.74880714e-04 -1.23028387e-03
-3.64831468e-04 8.76614423e-04 -1.10395122e-03
-2.32306903e-04 9.40288874e-04 -1.04545560e-03
-3.83687564e-04 9.73958161e-04 -1.17324973e-03
-7.10333480e-05 7.52365865e-04 -1.07208054e-03
-7.51450880e-05 2.05597693e-04 -1.35192150e-03
-1.87199837e-06 2.41525960e-04 -1.36541409e-03
4.85339749e-04 1.31499081e-04 -1.20694698e-03
1.64028357e-04 7.86273861e-04 -6.28461179e-04
4.80240547e-04 2.70893491e-04 -1.28667938e-03
5.05647874e-04 8.43407093e-04 -1.05427026e-03
7.26418776e-04 8.81245711e-04 -8.88347618e-04
1.10243881e-03 7.07472227e-04 -6.91575029e-04
-1.16297777e-03 2.60365697e-04 -7.65240526e-04
-1.10384236e-03 2.30594012e-04 -8.27781459e-04
-1.03953050e-03 3.30857503e-04 -9.47372210e-04
-9.50663248e-04 4.22502818e-04 -1.05183542e-03
-9.14298533e-04 5.52050943e-04 -1.09831890e-03
-1.01659456e-03 4.60840819e-04 -9.95920650e-04
-8.21836003e-04 4.34577479e-04 -1.15648260e-03
-6.23845198e-04 3.76952085e-04 -1.25953218e-03
-4.31741688e-04 2.18401327e-04 -1.28281349e-03
-4.68745202e-04 1.21350645e-04 -1.21164053e-03
-1.30164504e-04 2.61436183e-04 -1.36659189e-03
1.13679597e-04 2.21810373e-04 -1.35326114e-03
1.51816056e-04 4.23868004e-04 -1.39444578e-03
2.11626531e-04 3.58575071e-04 -1.37520397e-03
2.56851416e-04 2.87354589e-04 -1.35112196e-03
4.49635424e-04 1.89273457e-04 -1.26289616e-03
4.06066505e-04 3.33412145e-04 -1.32810232e-03
3.87057293e-04 8.07297295e-04 -1.23372071e-03
4.02028238e-04 2.51433174e-04 -1.30491558e-03
5.26442864e-04 2.12790058e-04 -1.24631005e-03
8.19697786e-04 1.41873371e-04 -1.04445610e-03
-1.13501366e-03 3.10225155e-04 -8.31387023e-04
-1.10613418e-03 3.65926873e-04 -8.86231484e-04
-1.09482655e-03 5.79093563e-04 -9.20179460e-04
-8.46397117e-04 3.09767908e-04 -1.11028409e-03
-9.96166361e-04 3.74021644e-04 -1.00100838e-03
-9.00159048e-04 4.69929816e-04 -1.10452947e-03
-6.02381772e-04 2.97195558e-04 -1.24623385e-03
-7.43295841e-04 2.86720377e-04 -1.16609448e-03
-4.73508156e-04 3.71924053e-04 -1.32265556e-03
-3.54581457e-04 2.24095498e-04 -1.30677605e-03
-1.68245338e-04 4.17001758e-04 -1.38996038e-03
-6.49256197e-05 3.03196835e-04 -1.38166167e-03
8.60651537e-05 4.79351289e-04 -1.40707718e-03
2.89639285e-04 3.89621494e-04 -1.36411797e-03
2.33365556e-04 2.10416978e-04 -1.32992205e-03
4.00763696e-04 4.92682757e-04 -1.35145446e-03
4.60477969e-04 4.27278408e-04 -1.32556630e-03
3.75556710e-04 4.08731659e-04 -1.34652938e-03
6.37964623e-04 3.14672019e-04 -1.23707644e-03
7.14929116e-04 1.88783655e-04 -1.14243711e-03
7.43918793e-04 1.21640286e-04 -1.07673787e-03
-1.21452795e-03 4.15142667e-04 -7.52893540e-04
-1.12796571e-03 4.46493282e-04 -8.76226656e-04
-1.08338184e-03 4.95600223e-04 -9.29902422e-04
-9.65503502e-04 5.09058921e-04 -1.04674108e-03
-8.45993992e-04 5.14396606e-04 -1.15147577e-03
-7.45660815e-04 3.91718599e-04 -1.19585123e-03
-6.85907235e-04 3.34334018e-04 -1.21460974e-03
-3.78251092e-04 3.07304105e-04 -1.33048019e-03
-3.19346733e-04 3.65301446e-04 -1.35874119e-03
-3.91791036e-04 1.49832424e-04 -1.25646900e-03
-8.79029519e-05 4.66417652e-04 -1.40257390e-03
-1.68735515e-04 1.96351134e-04 -1.33798886e-03
-7.42076307e-05 3.85238518e-04 -1.39527142e-03
7.79287691e-06 3.36659755e-04 -1.39100362e-03
2.31802974e-04 4.54555700e-04 -1.38547037e-03
3.29955279e-04 3.19493876e-04 -1.34318407e-03
4.28520385e-04 5.78221601e-04 -1.35215274e-03
6.91697621e-04 3.93603455e-04 -1.22886649e-03
6.81402038e-04 2.50696142e-04 -1.19397069e-03
7.60570141e-04 2.65356427e-04 -1.15390373e-03
8.28503891e-04 3.02339183e-04 -1.12540089e-03
-1.22415858e-03 4.99458323e-04 -7.42802567e-04
-1.04518243e-03 6.27514983e-04 -9.69275613e-04
-1.06369407e-03 4.13537023e-04 -9.42892956e-04
-8.57200765e-04 5.97904722e-04 -1.14669633e-03
-7.01423733e-04 5.17048605e-04 -1.24214262e-03
-7.62261742e-04 4.73788678e-04 -1.20161146e-03
-3.97053192e-04 3.94820359e-04 -1.34579740e-03
-3.30852478e-04 4.51027736e-04 -1.36782849e-03
-2.38845500e-04 3.49553365e-04 -1.37045446e-03
-1.70657055e-04 4.98215995e-04 -1.39647435e-03
-1.00422007e-04 5.54698198e-04 -1.40963218e-03
-2.13415391e-04 2.69148413e-04 -1.35455461e-03
-1.49466209e-05 5.09863073e-04 -1.41183693e-03
2.02666524e-04 6.02754686e-04 -1.40345106e-03
2.95201157e-06 4.29592293e-04 -1.40406285e-03
3.15369293e-04 4.74158172e-04 -1.36824620e-03
3.42752629e-04 5.56839958e-04 -1.37333999e-03
5.56062496e-04 3.05404453e-04 -1.26750776e-03
7.20278065e-04 3.24446662e-04 -1.19897439e-03
7.92019302e-04 3.53665833e-04 -1.16392699e-03
8.32895662e-04 4.32002230e-04 -1.14672656e-03
-1.21064831e-03 6.25273111e-04 -7.57348620e-04
-1.13961443e-03 5.32349970e-04 -8.66412110e-04
-9.93873156e-04 6.72322728e-04 -1.01907149e-03
-1.03611685e-03 5.43789809e-04 -9.82718601e-04
-7.87999666e-04 5.53792857e-04 -1.19335943e-03
-6.25956527e-04 4.72914040e-04 -1.27651586e-03
-5.58477165e-04 4.22571097e-04 -1.30005970e-03
-4.83343086e-04 4.50455264e-04 -1.33152604e-03
-2.50486828e-04 4.33766456e-04 -1.38012515e-03
-3.33445026e-04 5.33564579e-04 -1.37197908e-03
-2.52373180e-04 5.18444058e-04 -1.38582526e-03
-1.51430372e-04 3.40436668e-04 -1.38219366e-03
1.72518071e-04 5.10724082e-04 -1.40027450e-03
2.58058582e-04 5.40942692e-04 -1.38742289e-03
6.86371309e-05 2.84430505e-04 -1.37641975e-03
1.79333231e-04 7.59410125e-04 -1.39722351e-03
2.89767828e-04 6.27876809e-04 -1.38892188e-03
4.83277632e-04 5.15841052e-04 -1.33045294e-03
6.18144789e-04 3.91650493e-04 -1.26331983e-03
7.63440549e-04 4.24558682e-04 -1.19282260e-03
9.01783262e-04 4.50328550e-04 -1.09442080e-03
-1.18768136e-03 5.57051181e-04 -7.97938370e-04
-1.17927370e-03 4.72412579e-04 -8.12983870e-04
-1.04766435e-03 7.10584700e-04 -9.52227394e-04
-9.30407880e-04 6.32388600e-04 -1.08275985e-03
-7.96486893e-04 6.36351625e-04 -1.18772209e-03
-6.40240588e-04 5.57107825e-04 -1.27874023e-03
-5.58960726e-04 5.08276753e-04 -1.30977405e-03
-4.09896837e-04 4.83257409e-04 -1.35256432e-03
-4.87197851e-04 5.36348691e-04 -1.33667960e-03
-4.13600650e-04 5.67513305e-04 -1.35611914e-03
-1.85752730e-04 5.81744917e-04 -1.39969096e-03
-2.82831135e-05 5.98767647e-04 -1.41778443e-03
5.16116051e-05 5.52867324e-04 -1.41792468e-03
1.26188325e-04 5.74575690e-04 -1.41244059e-03
1.35544362e-04 6.61295129e-04 -1.41198994e-03
5.15067965e-04 5.95821521e-04 -1.32414624e-03
4.53794941e-04 6.58278605e-04 -1.34786653e-03
5.45658998e-04 3.89309223e-04 -1.29365964e-03
5.43208704e-04 4.68550313e-04 -1.30345998e-03
8.49230081e-04 5.12147452e-04 -1.13862295e-03
8.09094571e-04 5.92411896e-04 -1.16814566e-03
-1.22134887e-03 7.02635559e-04 -7.17944868e-04
-1.14709316e-03 6.14540817e-04 -8.50211336e-04
-1.09960637e-03 6.61848950e-04 -9.02566407e-04
-9.84478651e-04 5.89982350e-04 -1.03316404e-03
-7.24758577e-04 5.93323418e-04 -1.23276961e-03
-5.73327775e-04 5.90505619e-04 -1.30921932e-03
-5.87760432e-04 6.70451719e-04 -1.29984139e-03
-5.00249986e-04 6.21398463e-04 -1.33409587e-03
-4.25824265e-04 6.54434134e-04 -1.35397199e-03
-3.45575939e-04 6.17389025e-04 -1.37212888e-03
-2.65014958e-04 6.09628102e-04 -1.38695669e-03
-1.15987934e-04 6.38682929e-04 -1.41202658e-03
-4.40273305e-05 6.75813830e-04 -1.41697824e-03
5.31616307e-05 6.34953872e-04 -1.41922382e-03
1.04497938e-04 7.33821030e-04 -1.40760648e-03
3.69947008e-04 6.38355676e-04 -1.37091934e-03
3.01116056e-04 7.09546985e-04 -1.38313115e-03
5.36091998e-04 6.74234411e-04 -1.31618940e-03
6.25877567e-04 4.73489355e-04 -1.26789852e-03
7.80116918e-04 5.09736896e-04 -1.18749090e-03
7.74998197e-04 6.96718504e-04 -1.18341063e-03
-1.17475751e-03 6.77670377e-04 -8.01329553e-04
-1.12788183e-03 7.17708087e-04 -8.53179054e-04
-1.07767549e-03 7.67972657e-04 -8.99840824e-04
-8.13557296e-04 7.14846183e-04 -1.16442045e-03
-7.31369906e-04 6.78526709e-04 -1.22273814e-03
-6.58219206e-04 6.32582558e-04 -1.26707758e-03
-5.98725885e-04 7.51069644e-04 -1.28351045e-03
-5.15057240e-04 7.02265617e-04 -1.32382202e-03
-4.42704313e-04 7.32949444e-04 -1.34372967e-03
-3.48375085e-04 6.99154859e-04 -1.37057630e-03
-2.70356956e-04 6.97728999e-04 -1.38479337e-03
-1.92306201e-04 6.69477299e-04 -1.39975116e-03
-1.19603811e-04 7.24383576e-04 -1.40590571e-03
-4.65353265e-05 7.62705441e-04 -1.40470631e-03
2.83985736e-05 7.08216999e-04 -1.41670578e-03
2.55475305e-04 7.81877619e-04 -1.38221197e-03
2.76018689e-04 8.63861496e-04 -1.35704927e-03
3.85146775e-04 7.19384121e-04 -1.36404165e-03
5.72802911e-04 5.46636022e-04 -1.29684652e-03
7.04048487e-04 4.76991533e-04 -1.23044878e-03
7.47722879e-04 6.27272788e-04 -1.20879916e-03
-1.17965382e-03 7.55038718e-04 -7.68694030e-04
-1.07563931e-03 8.47304133e-04 -8.67914214e-04
-9.95804606e-04 7.55574168e-04 -9.98935197e-04
-8.74218296e-04 6.76362143e-04 -1.12617158e-03
-8.13888121e-04 7.97464253e-04 -1.14459682e-03
-6.64555864e-04 7.11900135e-04 -1.25829860e-03
-6.78158016e-04 7.88070664e-04 -1.23099335e-03
-5.26271837e-04 7.82224856e-04 -1.30822812e-03
-4.53714187e-04 8.14157054e-04 -1.32640074e-03
-3.71174004e-04 7.72610088e-04 -1.35884000e-03
-2.91095284e-04 7.85162318e-04 -1.36966165e-03
-2.07835205e-04 7.55473319e-04 -1.38877362e-03
-1.39537931e-04 8.02864205e-04 -1.38905755e-03
-6.30872456e-05 8.40327601e-04 -1.38315243e-03
3.11802978e-05 7.91992311e-04 -1.40114082e-03
1.91205008e-04 8.45000404e-04 -1.37571723e-03
3.62683919e-04 8.68087738e-04 -1.33590926e-03
3.35927600e-04 7.93726525e-04 -1.36416126e-03
6.02139398e-04 6.34377685e-04 -1.28740559e-03
7.22285471e-04 5.56018657e-04 -1.22523277e-03
7.33196509e-04 7.87530228e-04 -1.18723438e-03
-1.12804376e-03 7.96586854e-04 -8.22412352e-04
-1.06909360e-03 9.25821139e-04 -8.36641230e-04
[...]
POINT_DATA 20213
SCALARS pressure double 1
LOOKUP_TABLE default
0.00000000e+00
1.01883627e+03
1.68795639e+03
1.48388966e+03
1.10055612e+03
1.27646935e+03
6.93915364e+02
0.00000000e+00
7.56248670e+02
1.06737832e+03
1.32926455e+03
6.57020301e+02
1.51908112e+03
0.00000000e+00
1.06181344e+03
0.00000000e+00
2.34350980e+03
0.00000000e+00
1.07505501e+03
1.08059659e+03
8.03570275e+02
0.00000000e+00
1.28099080e+03
2.06894863e+03
1.89611312e+03
1.66294681e+03
2.15964316e+03
0.00000000e+00
0.00000000e+00
0.00000000e+00
0.00000000e+00
7.51194034e+02
1.45910583e+03
1.22419089e+03
1.51101634e+03
1.49219003e+03
0.00000000e+00
0.00000000e+00
7.99183065e+02
8.99934572e+02
5.93313397e+02
7.57674947e+02
1.79302665e+03
2.07415613e+03
1.89597633e+03
0.00000000e+00
2.09302800e+03
0.00000000e+00
0.00000000e+00
9.22461627e+02
0.00000000e+00
0.00000000e+00
7.99029149e+02
9.28644463e+02
0.00000000e+00
1.37923047e+03
1.41687030e+03
1.06678137e+03
9.85174098e+02
1.19454886e+03
0.00000000e+00
8.18123026e+02
0.00000000e+00
1.69021241e+03
2.21527535e+03
2.23750485e+03
1.88017425e+03
1.21319278e+03
0.00000000e+00
0.00000000e+00
9.08917187e+02
9.69572325e+02
0.00000000e+00
0.00000000e+00
0.00000000e+00
8.85901477e+02
0.00000000e+00
1.21554379e+03
1.21567630e+03
1.19282660e+03
0.00000000e+00
7.84284677e+02
0.00000000e+00
1.23070956e+03
1.55223958e+03
1.63242720e+03
0.00000000e+00
1.44738661e+03
7.90493095e+02
0.00000000e+00
9.79353730e+02
1.05041260e+03
1.00072040e+03
0.00000000e+00
0.00000000e+00
7.21972066e+02
0.00000000e+00
0.00000000e+00
0.00000000e+00
1.11431228e+03
0.00000000e+00
0.00000000e+00
0.00000000e+00
1.11414156e+03
1.35055227e+03
0.00000000e+00
2.07631131e+03
1.51812496e+03
2.08212803e+03
1.21585419e+03
0.00000000e+00
0.00000000e+00
0.00000000e+00
1.01105738e+03
7.03364612e+02
8.34260039e+02
0.00000000e+00
9.32763241e+02
0.00000000e+00
1.35026555e+03
0.00000000e+00
0.00000000e+00
1.05541975e+03
0.00000000e+00
0.00000000e+00
1.39273861e+03
1.58632681e+03
2.03463560e+03
0.00000000e+00
1.75937999e+03
0.00000000e+00
0.00000000e+00
0.00000000e+00
7.42459378e+02
0.00000000e+00
0.00000000e+00
6.71425049e+02
0.00000000e+00
0.00000000e+00
0.00000000e+00
5.76716730e+02
1.09254287e+03
9.68493982e+02
0.00000000e+00
9.06694318e+02
1.48891220e+03
1.38865796e+03
6.98170189e+02
1.45328862e+03
0.00000000e+00
1.95725621e+03
1.03216042e+03
0.00000000e+00
0.00000000e+00
0.00000000e+00
0.00000000e+00
0.00000000e+00
6.57699690e+02
0.00000000e+00
0.00000000e+00
0.00000000e+00
7.05690495e+02
8.63789175e+02
0.00000000e+00
9.53571839e+02
0.00000000e+00
1.17120305e+03
1.27907022e+03
0.00000000e+00
0.00000000e+00
0.00000000e+00
1.37846321e+03
1.19984533e+03
7.94343074e+02
0.00000000e+00
0.00000000e+00
0.00000000e+00
0.00000000e+00
0.00000000e+00
0.00000000e+00
0.00000000e+00
0.00000000e+00
0.00000000e+00
0.00000000e+00
0.00000000e+00
0.00000000e+00
1.04594014e+03
0.00000000e+00
1.21752656e+03
0.00000000e+00
0.00000000e+00
1.32338492e+03
1.62634495e+03
1.29622058e+03
0.00000000e+00
8.80137058e+02
0.00000000e+00
0.00000000e+00
0.00000000e+00
5.69986026e+02
0.00000000e+00
0.00000000e+00
7.98147016e+02
0.00000000e+00
7.32426775e+02
0.00000000e+00
0.00000000e+00
0.00000000e+00
0.00000000e+00
1.07158518e+03
0.00000000e+00
0.00000000e+00
1.62487199e+03
1.36545470e+03
1.12819287e+03
9.40256685e+02
0.00000000e+00
0.00000000e+00
0.00000000e+00
7.10419508e+02
6.71468217e+02
8.52085227e+02
0.00000000e+00
1.05463047e+03
8.63833011e+02
0.00000000e+00
0.00000000e+00
0.00000000e+00
0.00000000e+00
9.45454537e+02
1.10380250e+03
0.00000000e+00
0.00000000e+00
7.70367933e+02
0.00000000e+00
9.80038248e+02
0.00000000e+00
0.00000000e+00
0.00000000e+00
0.00000000e+00
0.00000000e+00
6.60128234e+02
8.37406783e+02
0.00000000e+00
1.17979101e+03
9.20839293e+02
0.00000000e+00
0.00000000e+00
6.42625714e+02
0.00000000e+00
0.00000000e+00
6.09769681e+02
0.00000000e+00
0.00000000e+00
6.85006444e+02
0.00000000e+00
0.00000000e+00
0.00000000e+00
0.00000000e+00
0.00000000e+00
0.00000000e+00
8.97447807e+02
0.00000000e+00
1.13198166e+03
1.32884147e+03
1.21626770e+03
1.10159892e+03
0.00000000e+00
0.00000000e+00
6.66409414e+02
4.98598092e+02
6.02688014e+02
7.56605271e+02
0.00000000e+00
0.00000000e+00
0.00000000e+00
5.41135631e+02
0.00000000e+00
0.00000000e+00
0.00000000e+00
0.00000000e+00
0.00000000e+00
0.00000000e+00
9.69530712e+02
1.21689279e+03
1.34784377e+03
1.22309143e+03
0.00000000e+00
0.00000000e+00
7.87002103e+02
0.00000000e+00
0.00000000e+00
0.00000000e+00
0.00000000e+00
0.00000000e+00
0.00000000e+00
0.00000000e+00
0.00000000e+00
0.00000000e+00
0.00000000e+00
0.00000000e+00
0.00000000e+00
0.00000000e+00
0.00000000e+00
9.74098469e+02
1.12612785e+03
1.19968219e+03
1.33760103e+03
1.13398588e+03
9.79668544e+02
0.00000000e+00
0.00000000e+00
0.00000000e+00
0.00000000e+00
0.00000000e+00
0.00000000e+00
0.00000000e+00
0.00000000e+00
0.00000000e+00
0.00000000e+00
0.00000000e+00
0.00000000e+00
5.23899354e+02
0.00000000e+00
0.00000000e+00
0.00000000e+00
1.11905107e+03
0.00000000e+00
0.00000000e+00
1.26437002e+03
1.20566667e+03
0.00000000e+00
0.00000000e+00
0.00000000e+00
0.00000000e+00
0.00000000e+00
5.97224824e+02
6.38306316e+02
0.00000000e+00
0.00000000e+00
0.00000000e+00
0.00000000e+00
0.00000000e+00
5.39943655e+02
0.00000000e+00
0.00000000e+00
0.00000000e+00
9.51986456e+02
1.15763616e+03
0.00000000e+00
1.38818025e+03
1.18966893e+03
0.00000000e+00
0.00000000e+00
0.00000000e+00
0.00000000e+00
0.00000000e+00
0.00000000e+00
6.63496806e+02
8.30516762e+02
0.00000000e+00
0.00000000e+00
0.00000000e+00
0.00000000e+00
0.00000000e+00
6.41582817e+02
6.33478117e+02
7.54355227e+02
1.06626249e+03
1.12155098e+03
1.39480556e+03
1.49370344e+03
1.55665344e+03
1.23319600e+03
0.00000000e+00
0.00000000e+00
0.00000000e+00
0.00000000e+00
0.00000000e+00
7.38585291e+02
9.62038990e+02
0.00000000e+00
0.00000000e+00
0.00000000e+00
0.00000000e+00
0.00000000e+00
0.00000000e+00
5.74155383e+02
6.07921440e+02
0.00000000e+00
1.21436188e+03
1.48839272e+03
1.57508714e+03
1.57522859e+03
1.14017481e+03
0.00000000e+00
0.00000000e+00
0.00000000e+00
0.00000000e+00
8.28364289e+02
9.09972274e+02
0.00000000e+00
6.84092881e+02
5.23077646e+02
0.00000000e+00
0.00000000e+00
0.00000000e+00
0.00000000e+00
0.00000000e+00
0.00000000e+00
0.00000000e+00
0.00000000e+00
1.15202922e+03
1.30540769e+03
1.39042118e+03
1.44001359e+03
1.12663266e+03
9.33178809e+02
6.20047784e+02
0.00000000e+00
0.00000000e+00
9.00728026e+02
8.71090473e+02
8.04094660e+02
0.00000000e+00
0.00000000e+00
0.00000000e+00
0.00000000e+00
0.00000000e+00
0.00000000e+00
0.00000000e+00
0.00000000e+00
0.00000000e+00
0.00000000e+00
0.00000000e+00
0.00000000e+00
1.29847333e+03
0.00000000e+00
1.00030090e+03
0.00000000e+00
0.00000000e+00
0.00000000e+00
0.00000000e+00
1.37706022e+03
1.90821334e+03
0.00000000e+00
9.68358661e+02
2.20202594e+03
0.00000000e+00
6.10314315e+02
1.55019907e+03
1.99082427e+03
2.25139227e+03
1.33860242e+03
7.55443975e+02
1.40969203e+03
1.69683375e+03
0.00000000e+00
8.20393232e+02
9.09103714e+02
0.00000000e+00
0.00000000e+00
1.04556750e+03
1.92148537e+03
8.19454904e+02
2.17504230e+03
6.80077555e+02
1.45502588e+03
1.03480404e+03
1.77326118e+03
1.51619001e+03
1.87560327e+03
2.32421620e+03
2.60520069e+03
1.11498945e+03
2.58081377e+03
2.18733532e+03
1.69580383e+03
1.52394494e+03
1.48957767e+03
1.74899609e+03
1.39996468e+03
1.32944350e+03
2.02776008e+03
1.30607724e+03
1.38764819e+03
1.79753188e+03
1.96899876e+03
7.75315584e+02
2.38215368e+03
0.00000000e+00
0.00000000e+00
7.12247940e+02
0.00000000e+00
0.00000000e+00
0.00000000e+00
1.07659730e+03
1.35575714e+03
1.42986302e+03
1.31067912e+03
5.67881455e+02
1.43419865e+03
1.09653903e+03
0.00000000e+00
1.25338196e+03
8.05549534e+02
2.58192115e+03
1.51363052e+03
1.13878605e+03
1.85932010e+03
6.84319360e+02
1.41836490e+03
1.01749212e+03
8.88483912e+02
1.61271538e+03
1.75773272e+03
2.16006513e+03
1.31444815e+03
1.26927210e+03
1.54011112e+03
1.92998949e+03
1.85715770e+03
9.03140090e+02
2.11031308e+03
1.17205957e+03
0.00000000e+00
1.07988699e+03
2.38284569e+03
2.33300037e+03
2.62926638e+03
2.05654137e+03
2.44851273e+03
8.68812645e+02
8.15819140e+02
2.01027780e+03
2.04158121e+03
2.41916634e+03
1.18698432e+03
1.13953718e+03
1.03271511e+03
2.41810707e+03
8.47407836e+02
1.31608521e+03
1.44061006e+03
7.97686187e+02
0.00000000e+00
0.00000000e+00
1.90780412e+03
9.89840314e+02
9.82415582e+02
1.63882765e+03
6.87028670e+02
2.53316193e+03
1.61070490e+03
7.16174417e+02
1.09217797e+03
2.51675418e+03
1.17240676e+03
1.68270052e+03
1.72926223e+03
1.24550606e+03
0.00000000e+00
1.35536910e+03
1.15441965e+03
4.72618725e+02
1.77452647e+03
1.48129920e+03
1.02582942e+03
1.38784096e+03
1.45691750e+03
1.91815370e+03
1.75906478e+03
8.93311178e+02
2.27632417e+03
1.76960183e+03
7.29164961e+02
2.14243282e+03
9.27567149e+02
1.67749905e+03
2.28452074e+03
1.50735317e+03
1.55021327e+03
1.75985537e+03
1.35905385e+03
6.44727092e+02
1.05187693e+03
5.58754060e+02
1.54131106e+03
1.34003102e+03
1.12044260e+03
0.00000000e+00
1.33145138e+03
1.76939666e+03
2.07107693e+03
1.87653332e+03
2.37138994e+03
2.13940179e+03
2.16836372e+03
1.26304735e+03
1.18556073e+03
1.87328414e+03
1.42261669e+03
1.92930958e+03
2.21370508e+03
1.05607740e+03
1.00791244e+03
9.62820775e+02
6.21065756e+02
0.00000000e+00
1.01619209e+03
2.47628984e+03
1.09428909e+03
2.30237377e+03
1.54444835e+03
2.07105624e+03
1.45425144e+03
2.17068422e+03
1.36279628e+03
1.04883388e+03
1.32198351e+03
2.52574425e+03
1.14241898e+03
1.82276387e+03
1.45868026e+03
1.17783040e+03
2.60911621e+03
2.54273247e+03
1.09029883e+03
1.09335950e+03
1.20520935e+03
1.00230074e+03
2.43147025e+03
1.62428116e+03
1.33445139e+03
9.54434028e+02
6.44464924e+02
5.50918030e+02
4.64926978e+02
1.96250370e+03
9.56936417e+02
9.70632833e+02
1.36171328e+03
2.55878579e+03
1.09646203e+03
1.38104813e+03
1.38972874e+03
7.72886859e+02
1.16992135e+03
0.00000000e+00
7.72802679e+02
0.00000000e+00
0.00000000e+00
2.11152633e+03
1.50166227e+03
1.23330247e+03
9.21484736e+02
1.03846661e+03
9.29250373e+02
1.75556046e+03
1.89703318e+03
2.09304577e+03
8.97852295e+02
2.31385560e+03
1.39448697e+03
2.06073120e+03
1.27154597e+03
1.27241867e+03
1.63970436e+03
1.89068822e+03
0.00000000e+00
1.44311092e+03
1.20081493e+03
4.00623271e+02
1.23555560e+03
1.13283503e+03
9.67306279e+02
8.61842327e+02
5.22090897e+02
1.39334943e+03
5.06314032e+02
2.57200333e+03
1.66753425e+03
2.29780009e+03
1.35202565e+03
1.76323004e+03
9.17040985e+02
1.74995624e+03
1.37847074e+03
1.09747617e+03
9.95521659e+02
0.00000000e+00
6.52130248e+02
0.00000000e+00
0.00000000e+00
2.16956291e+03
6.94832927e+02
1.78636513e+03
1.78283862e+03
6.95363159e+02
1.06103800e+03
2.12654484e+03
1.91930104e+03
8.78085815e+02
1.39181092e+03
2.40595175e+03
1.44664873e+03
2.68314371e+03
1.37883248e+03
1.28094557e+03
1.34980174e+03
2.49935379e+03
0.00000000e+00
2.33107041e+03
0.00000000e+00
0.00000000e+00
1.03702847e+03
0.00000000e+00
1.56530417e+03
8.18328177e+02
6.18676569e+02
1.41020406e+03
1.55501437e+03
1.95355306e+03
4.60691771e+02
1.32549792e+03
8.43328175e+02
9.97622098e+02
6.70253582e+02
1.11300931e+03
1.21746750e+03
1.40056001e+03
1.54729990e+03
0.00000000e+00
8.22130227e+02
0.00000000e+00
0.00000000e+00
9.97161361e+02
1.01844498e+03
1.38653534e+03
1.82440655e+03
1.45773454e+03
1.75946161e+03
2.39598573e+03
2.05569873e+03
5.97040172e+02
2.32732735e+03
6.97748393e+02
7.45921796e+02
5.34660932e+02
1.35310537e+03
1.47852457e+03
2.01857996e+03
1.19251440e+03
1.02897023e+03
8.49892380e+02
0.00000000e+00
0.00000000e+00
1.15035448e+03
1.44528809e+03
7.90941302e+02
6.91624532e+02
0.00000000e+00
1.05093142e+03
5.64697392e+02
8.53749168e+02
8.60516792e+02
1.51738007e+03
2.06319441e+03
1.18072470e+03
9.57872290e+02
1.24661410e+03
1.15697271e+03
1.86309349e+03
9.81633439e+02
1.33362956e+03
8.47315784e+02
0.00000000e+00
7.42046479e+02
1.45216884e+03
1.71177861e+03
1.18859399e+03
2.34888028e+03
9.10112298e+02
1.14834125e+03
4.92570686e+02
1.72889215e+03
8.14244604e+02
1.02820604e+03
8.81647959e+02
1.33137553e+03
1.19255136e+03
2.05519415e+03
1.17754419e+03
1.92148109e+03
1.08355670e+03
1.72705572e+03
8.02023515e+02
6.81692924e+02
0.00000000e+00
1.14905346e+03
1.02792147e+03
1.87149959e+03
9.56099780e+02
1.97441806e+03
1.34750495e+03
9.57454264e+02
1.45262009e+03
8.09914889e+02
1.17136444e+03
9.22305907e+02
2.06783388e+03
1.93592523e+03
1.30180102e+03
1.21917441e+03
1.24717394e+03
1.44441320e+03
9.59736633e+02
8.55014072e+02
0.00000000e+00
7.24498324e+02
1.19813450e+03
9.33831583e+02
1.19989836e+03
1.85020429e+03
1.39046917e+03
1.08326279e+03
0.00000000e+00
0.00000000e+00
0.00000000e+00
0.00000000e+00
9.25591098e+02
7.29018782e+02
0.00000000e+00
1.00929827e+03
1.24725262e+03
1.12825304e+03
9.98341639e+02
9.61533437e+02
1.42479910e+03
0.00000000e+00
0.00000000e+00
2.60201578e+03
1.04995124e+03
1.52885468e+03
1.16474902e+03
1.43589262e+03
1.24685887e+03
8.01462211e+02
1.24560063e+03
9.06033720e+02
1.89958934e+03
1.09237031e+03
2.58615018e+03
9.20589554e+02
9.60642243e+02
9.91663850e+02
1.05531890e+03
1.19650197e+03
1.41657521e+03
2.27219328e+03
0.00000000e+00
0.00000000e+00
8.89011853e+02
8.53291963e+02
8.05103530e+02
0.00000000e+00
0.00000000e+00
0.00000000e+00
0.00000000e+00
0.00000000e+00
0.00000000e+00
0.00000000e+00
0.00000000e+00
0.00000000e+00
0.00000000e+00
1.21257783e+03
1.31100561e+03
1.36780347e+03
1.33780392e+03
1.15520133e+03
0.00000000e+00
6.66039932e+02
0.00000000e+00
0.00000000e+00
0.00000000e+00
1.25193008e+03
6.81970333e+02
1.00855784e+03
8.77367880e+02
0.00000000e+00
0.00000000e+00
5.85813508e+02
6.18511031e+02
1.47807122e+03
1.44785357e+03
1.55437659e+03
1.07928057e+03
0.00000000e+00
5.40739921e+02
7.73522769e+02
8.36827533e+02
0.00000000e+00
0.00000000e+00
0.00000000e+00
1.38901599e+03
1.35126287e+03
1.11049791e+03
1.38834608e+03
8.36692187e+02
9.60805065e+02
7.02877180e+02
2.46918158e+03
7.23614497e+02
1.51834210e+03
1.52056446e+03
7.14845814e+02
1.47892094e+03
1.26190379e+03
1.90611324e+03
2.05862506e+03
2.05975811e+03
1.28257472e+03
8.74169913e+02
1.17654392e+03
0.00000000e+00
1.13730521e+03
2.20756384e+03
2.53083210e+03
2.12638289e+03
2.08390291e+03
2.63377222e+03
1.06974735e+03
1.26350707e+03
2.10644524e+03
7.19680150e+02
1.40829466e+03
1.42773569e+03
1.51459185e+03
1.47140004e+03
2.18180409e+03
1.42529196e+03
1.21531073e+03
9.35509472e+02
1.66361682e+03
1.22982232e+03
0.00000000e+00
9.21011786e+02
1.72830176e+03
1.82172540e+03
1.78544898e+03
1.38166927e+03
2.05081590e+03
1.23055729e+03
1.56396169e+03
7.01197069e+02
1.01865280e+03
1.91280312e+03
1.74588958e+03
1.03198555e+03
2.22139992e+03
1.65388907e+03
1.54370620e+03
2.00123827e+03
1.50160184e+03
1.80283472e+03
1.07252940e+03
0.00000000e+00
1.76067889e+03
1.35511657e+03
1.78045742e+03
2.14994307e+03
2.09449411e+03
1.25008366e+03
1.69416560e+03
6.81330108e+02
1.30554773e+03
1.91413439e+03
1.47449602e+03
8.30336937e+02
2.26811193e+03
1.42772896e+03
8.67398588e+02
1.91247004e+03
1.35344830e+03
2.22198539e+03
1.94185538e+03
1.18894818e+03
0.00000000e+00
1.33883765e+03
1.09176900e+03
1.41305404e+03
2.46839072e+03
1.85961807e+03
1.64609806e+03
2.06038074e+03
1.06976016e+03
2.33125022e+03
5.98408860e+02
1.20588845e+03
1.22782119e+03
1.13928871e+03
2.43470686e+03
1.83475433e+03
1.73106606e+03
9.20647419e+02
1.77911429e+03
1.38073014e+03
0.00000000e+00
0.00000000e+00
1.40328588e+03
1.27411246e+03
1.99426793e+03
1.40383148e+03
1.29484269e+03
1.54067768e+03
1.74751816e+03
1.02171245e+03
2.51752403e+03
1.23438093e+03
8.54879805e+02
1.25027199e+03
1.41479144e+03
2.05804659e+03
1.21620145e+03
2.08122179e+03
2.39524338e+03
1.76642893e+03
9.03667650e+02
1.56902557e+03
0.00000000e+00
1.00971118e+03
2.59113704e+03
2.30809629e+03
2.29598463e+03
1.95739758e+03
5.49709305e+02
8.33002963e+02
1.27384877e+03
2.18319773e+03
2.52220932e+03
1.36210360e+03
1.99872537e+03
2.24360965e+03
2.53893307e+03
1.44942088e+03
2.45419760e+03
2.41226273e+03
2.24111187e+03
1.41558884e+03
1.30703786e+03
0.00000000e+00
0.00000000e+00
1.45859355e+03
1.19554956e+03
2.41010456e+03
2.21519457e+03
2.61083738e+03
2.06555602e+03
1.99887099e+03
1.32719733e+03
2.49983365e+03
1.69211875e+03
1.79803677e+03
1.37781213e+03
2.10756381e+03
1.25729090e+03
1.70915682e+03
1.83261726e+03
1.50740518e+03
1.37892766e+03
0.00000000e+00
1.14130352e+03
1.18295438e+03
2.39449588e+03
1.02487794e+03
2.25846770e+03
2.45807093e+03
2.53158948e+03
1.10969792e+03
9.79094801e+02
1.96819934e+03
6.57739468e+02
1.03016613e+03
1.89803286e+03
1.28957342e+03
1.78655203e+03
1.41601072e+03
1.45140286e+03
1.42588694e+03
1.47151828e+03
1.46391119e+03
1.05024259e+03
0.00000000e+00
0.00000000e+00
2.36963398e+03
1.02527712e+03
2.48237826e+03
9.83806562e+02
1.80874348e+03
1.45550334e+03
2.27194080e+03
2.27979597e+03
1.72908914e+03
2.63568685e+03
1.19009464e+03
2.27147407e+03
2.08635990e+03
1.36694922e+03
2.02388807e+03
9.65462814e+02
1.81030853e+03
1.27522880e+03
6.59885231e+02
0.00000000e+00
9.75708539e+02
2.14562565e+03
1.11226281e+03
2.14534308e+03
1.03071617e+03
1.76886262e+03
1.18820144e+03
2.69740243e+03
9.89832418e+02
1.40947878e+03
1.27703036e+03
1.45492426e+03
1.11444986e+03
1.57863418e+03
1.52858024e+03
1.91207931e+03
1.44923836e+03
1.68344216e+03
9.79881842e+02
0.00000000e+00
0.00000000e+00
0.00000000e+00
1.41412139e+03
1.17370850e+03
0.00000000e+00
1.27993302e+03
1.59494585e+03
2.57308647e+03
1.08216930e+03
2.46418224e+03
1.63581664e+03
2.31779932e+03
1.38918634e+03
2.34837791e+03
1.00583413e+03
1.99596907e+03
1.61408624e+03
1.37035981e+03
1.45905662e+03
0.00000000e+00
0.00000000e+00
3.95529688e+02
0.00000000e+00
2.11637441e+03
1.47331465e+03
1.62890110e+03
1.67143690e+03
1.85593645e+03
1.90496543e+03
1.76644583e+03
2.18965669e+03
8.09326666e+02
2.14413580e+03
1.98790618e+03
2.65478945e+03
1.37559235e+03
1.39752187e+03
1.70640145e+03
1.73747356e+03
8.38368326e+02
0.00000000e+00
7.57801357e+02
0.00000000e+00
2.33212278e+03
2.44798685e+03
2.09042110e+03
2.63519668e+03
2.45262131e+03
1.30024300e+03
5.35075524e+02
2.17196746e+03
1.96890471e+03
1.63493198e+03
2.38858961e+03
1.01234743e+03
1.17218260e+03
2.63463041e+03
2.54770214e+03
1.12671190e+03
1.84456287e+03
2.10530115e+03
7.42540003e+02
0.00000000e+00
0.00000000e+00
1.81701351e+03
2.54070614e+03
2.04041927e+03
1.53372097e+03
1.21234463e+03
2.56632264e+03
1.29435513e+03
2.37821811e+03
1.79482633e+03
1.21404581e+03
2.01694265e+03
1.63301802e+03
1.47742677e+03
1.71255772e+03
1.93950714e+03
1.81314933e+03
1.77098653e+03
1.40824851e+03
6.80599560e+02
7.05977860e+02
8.32812528e+02
2.58245870e+03
8.89830048e+02
1.51732624e+03
1.05763229e+03
9.17011662e+02
1.02951212e+03
1.40000923e+03
1.75193656e+03
2.65551286e+03
9.82700271e+02
1.44907191e+03
9.28089149e+02
1.06192986e+03
1.59799201e+03
1.33038292e+03
1.25786330e+03
2.30252339e+03
1.60123101e+03
1.42313081e+03
0.00000000e+00
0.00000000e+00
1.09305856e+03
2.09102207e+03
1.23577632e+03
9.90599344e+02
2.46340905e+03
2.56139277e+03
1.74706309e+03
1.15251002e+03
8.92153090e+02
1.09431789e+03
9.74675028e+02
1.08356557e+03
1.19450676e+03
1.58460358e+03
2.20448884e+03
2.31865917e+03
1.90117471e+03
1.73075589e+03
1.11140522e+03
0.00000000e+00
0.00000000e+00
1.35699877e+03
2.46820817e+03
2.08990935e+03
1.80476786e+03
1.32418334e+03
1.43130317e+03
2.16247414e+03
1.28672988e+03
1.76784767e+03
1.06082125e+03
1.92880543e+03
1.25581927e+03
1.39819365e+03
1.44159242e+03
2.26422815e+03
2.59993736e+03
2.63663381e+03
1.19686405e+03
1.72644725e+03
0.00000000e+00
0.00000000e+00
1.25908125e+03
1.17797579e+03
2.10639595e+03
2.50067054e+03
2.17143570e+03
1.65231571e+03
8.24585000e+02
7.38738479e+02
7.29527300e+02
0.00000000e+00
0.00000000e+00
7.12242998e+02
0.00000000e+00
1.35763880e+03
1.09877036e+03
1.40899493e+03
1.00593067e+03
2.05622539e+03
1.25677397e+03
6.96861091e+02
0.00000000e+00
0.00000000e+00
0.00000000e+00
9.85583534e+02
7.48219491e+02
3.34227928e+02
0.00000000e+00
0.00000000e+00
0.00000000e+00
0.00000000e+00
0.00000000e+00
0.00000000e+00
0.00000000e+00
8.56625426e+02
1.10843012e+03
1.35186988e+03
1.12218200e+03
1.03084887e+03
9.16911722e+02
0.00000000e+00
0.00000000e+00
0.00000000e+00
6.21788453e+02
0.00000000e+00
2.32719170e+03
1.04980051e+03
1.39375731e+03