# vtk DataFile Version 3.0
MPS 3D Simulation Step 500
ASCII
DATASET UNSTRUCTURED_GRID
POINTS 20213 double
-7.15735992e-04 8.61945404e-04 -7.16128959e-04
-6.46946349e-04 8.31809699e-04 -7.45888710e-04
-5.75905991e-04 8.08807063e-04 -7.65667953e-04
-5.10220953e-04 7.93029566e-04 -7.84099902e-04
-4.43223497e-04 7.80953833e-04 -8.00853088e-04
-3.79950205e-04 7.64616579e-04 -8.08459883e-04
-3.02937181e-04 7.54715082e-04 -8.22685074e-04
-2.10562724e-04 7.41949713e-04 -8.37730104e-04
-1.42299482e-04 7.29761871e-04 -8.46995187e-04
-6.70161238e-05 7.21498799e-04 -8.53000063e-04
7.47210508e-07 7.23635579e-04 -8.57755071e-04
6.83026189e-05 7.21379426e-04 -8.52889008e-04
1.41964023e-04 7.31257593e-04 -8.47392910e-04
2.10447170e-04 7.42056110e-04 -8.38303021e-04
3.03325224e-04 7.54422206e-04 -8.23000633e-04
3.78765711e-04 7.66337314e-04 -8.09266151e-04
4.42780998e-04 7.80534719e-04 -8.01517825e-04
5.10008868e-04 7.91270933e-04 -7.81331518e-04
5.75204888e-04 8.10827398e-04 -7.68831550e-04
6.46333454e-04 8.30917644e-04 -7.45398346e-04
7.16696500e-04 8.61001796e-04 -7.16090642e-04
-7.44655955e-04 9.30060165e-04 -7.46394204e-04
-6.70758467e-04 9.06287745e-04 -7.87670630e-04
-5.94624648e-04 8.82444723e-04 -8.12946958e-04
-5.11330175e-04 8.63568776e-04 -8.35229358e-04
-4.67602728e-04 9.15577662e-04 -8.87453547e-04
-4.24144452e-04 8.47027482e-04 -8.57073164e-04
-3.40848061e-04 8.24635544e-04 -8.67795161e-04
-2.56773526e-04 8.02239855e-04 -8.77701970e-04
-1.80664004e-04 8.19579997e-04 -9.06033622e-04
-9.92139352e-05 7.85976514e-04 -9.01392322e-04
-5.53766911e-08 7.94540662e-04 -9.09640124e-04
9.88644083e-05 7.86525601e-04 -9.01131074e-04
1.80602522e-04 8.18747556e-04 -9.07411439e-04
2.56457928e-04 8.02186918e-04 -8.77619546e-04
3.40730713e-04 8.25214548e-04 -8.67959016e-04
4.24229997e-04 8.47908444e-04 -8.57373112e-04
4.67662991e-04 9.15809374e-04 -8.86993834e-04
5.11346696e-04 8.63312822e-04 -8.34058909e-04
5.94569008e-04 8.83998897e-04 -8.14312684e-04
6.70878451e-04 9.05637307e-04 -7.87682452e-04
7.46903859e-04 9.30228664e-04 -7.45755666e-04
-7.67742648e-04 1.00153475e-03 -7.67648241e-04
-6.94085502e-04 9.82684735e-04 -8.13659586e-04
-6.23068021e-04 9.54040447e-04 -8.46174685e-04
-5.50574156e-04 9.63549880e-04 -8.82863548e-04
-4.88634088e-04 9.87955078e-04 -9.25457776e-04
-3.72151673e-04 8.95016775e-04 -9.06897183e-04
-3.11782271e-04 9.36129057e-04 -9.53817812e-04
-2.66602615e-04 8.66675817e-04 -9.20683403e-04
-2.19408348e-04 9.11086667e-04 -9.64531913e-04
-1.54845127e-04 9.60876583e-04 -1.00834771e-03
-3.19534290e-07 9.46680389e-04 -1.01361319e-03
1.54433586e-04 9.61112416e-04 -1.00854736e-03
2.19516428e-04 9.10969334e-04 -9.64623005e-04
2.66322842e-04 8.66643330e-04 -9.20212589e-04
3.11304616e-04 9.35954872e-04 -9.53207812e-04
3.72017333e-04 8.95309099e-04 -9.06462865e-04
4.88806032e-04 9.88831582e-04 -9.25286422e-04
5.50259476e-04 9.63652369e-04 -8.84054661e-04
6.22871979e-04 9.54393826e-04 -8.46129125e-04
6.93177404e-04 9.81782392e-04 -8.14798163e-04
7.66419160e-04 1.00128364e-03 -7.69414250e-04
-7.86108511e-04 1.06764954e-03 -7.82236170e-04
-7.14829556e-04 1.06554821e-03 -8.34204289e-04
-6.13760340e-04 1.02641073e-03 -8.82447959e-04
-5.15812472e-04 1.06175107e-03 -9.53370183e-04
-4.33332718e-04 1.04256882e-03 -9.77039855e-04
-4.00835066e-04 9.66723647e-04 -9.42669609e-04
-3.38723362e-04 1.01475312e-03 -9.95237060e-04
-2.54859469e-04 9.80522794e-04 -9.99346779e-04
-1.89499391e-04 1.02884877e-03 -1.04560001e-03
-9.30484097e-05 1.00119987e-03 -1.04225012e-03
4.84687087e-07 1.02026044e-03 -1.06041006e-03
9.31834130e-05 1.00213823e-03 -1.04169391e-03
1.88938992e-04 1.02930700e-03 -1.04490985e-03
2.55463860e-04 9.81107450e-04 -9.99158082e-04
3.37999620e-04 1.01502595e-03 -9.94610568e-04
4.00961909e-04 9.65746812e-04 -9.42924176e-04
4.33764835e-04 1.04231618e-03 -9.77387769e-04
5.15118075e-04 1.06241112e-03 -9.52667401e-04
6.14082027e-04 1.02681462e-03 -8.82963091e-04
7.13613645e-04 1.06643569e-03 -8.34929517e-04
7.85618124e-04 1.06758764e-03 -7.84179656e-04
-7.94912554e-04 1.13420085e-03 -8.02873420e-04
-6.61820792e-04 1.10786238e-03 -8.86735269e-04
-5.89099713e-04 1.08842495e-03 -9.24848505e-04
-5.33810012e-04 1.14399778e-03 -9.77510761e-04
-4.62555286e-04 1.11408297e-03 -1.00183758e-03
-3.69676761e-04 1.08256340e-03 -1.02541577e-03
-2.73896502e-04 1.06014098e-03 -1.04459070e-03
-2.26669350e-04 1.10959768e-03 -1.08336762e-03
-1.49094678e-04 1.08822934e-03 -1.08732979e-03
-6.59952298e-05 1.06163830e-03 -1.08435798e-03
-2.23104051e-07 1.11373376e-03 -1.11428067e-03
6.56180351e-05 1.06144727e-03 -1.08451359e-03
1.48871679e-04 1.08829614e-03 -1.08787632e-03
2.27321701e-04 1.10839822e-03 -1.08397035e-03
2.73942067e-04 1.05968601e-03 -1.04333225e-03
3.69749749e-04 1.08255753e-03 -1.02472845e-03
4.62900484e-04 1.11461731e-03 -1.00229393e-03
5.34408775e-04 1.14314165e-03 -9.77648858e-04
5.88367145e-04 1.08871162e-03 -9.25624085e-04
6.61717472e-04 1.10849552e-03 -8.87193873e-04
7.99084225e-04 1.13412472e-03 -7.98979496e-04
-8.12444035e-04 1.19720392e-03 -8.08172918e-04
-7.30001889e-04 1.15333680e-03 -8.57910642e-04
-6.81771843e-04 1.20430779e-03 -9.07480135e-04
-6.10761297e-04 1.17585403e-03 -9.43066045e-04
-4.94488188e-04 1.20809088e-03 -1.02439222e-03
-3.67504913e-04 1.21048577e-03 -1.08471668e-03
-3.23148504e-04 1.13860483e-03 -1.07082502e-03
-2.63194917e-04 1.18147793e-03 -1.10452033e-03
-1.70362405e-04 1.17763622e-03 -1.12282154e-03
-8.55915667e-05 1.13713600e-03 -1.12039756e-03
-4.59570923e-07 1.18969218e-03 -1.14725256e-03
8.48738497e-05 1.13790361e-03 -1.11975084e-03
1.70334196e-04 1.17729516e-03 -1.12164596e-03
2.63182755e-04 1.18120363e-03 -1.10340598e-03
3.23004099e-04 1.13814650e-03 -1.07025611e-03
3.67194752e-04 1.21021033e-03 -1.08493965e-03
4.94269531e-04 1.20844565e-03 -1.02494997e-03
6.10513229e-04 1.17581327e-03 -9.43144203e-04
6.81452197e-04 1.20375688e-03 -9.06698616e-04
7.29439086e-04 1.15289780e-03 -8.56831467e-04
8.09485239e-04 1.19735667e-03 -8.11742167e-04
-8.22060875e-04 1.27400516e-03 -8.23512637e-04
-7.51462936e-04 1.23711559e-03 -8.68332475e-04
-6.41686865e-04 1.26612377e-03 -9.53959069e-04
-5.62243236e-04 1.23784203e-03 -9.95774538e-04
-5.17046682e-04 1.30289715e-03 -1.04398421e-03
-4.39334993e-04 1.25393691e-03 -1.06957788e-03
-3.17188466e-04 1.25963837e-03 -1.11618593e-03
-2.27558752e-04 1.24678463e-03 -1.13722769e-03
-1.44074110e-04 1.25983498e-03 -1.15761232e-03
-8.44970039e-05 1.21350144e-03 -1.15064910e-03
-4.95164110e-07 1.26747365e-03 -1.17058678e-03
8.44210455e-05 1.21308911e-03 -1.15159970e-03
1.44652951e-04 1.25921225e-03 -1.15844025e-03
2.28597216e-04 1.24594321e-03 -1.13725743e-03
3.17426123e-04 1.26010808e-03 -1.11635625e-03
4.38690194e-04 1.25416686e-03 -1.06935504e-03
5.17410100e-04 1.30316087e-03 -1.04401407e-03
5.62005537e-04 1.23864837e-03 -9.95178837e-04
6.41418415e-04 1.26601187e-03 -9.53491572e-04
7.50628789e-04 1.23785463e-03 -8.68921340e-04
8.21943256e-04 1.27524535e-03 -8.22326143e-04
-8.37916250e-04 1.36715394e-03 -8.36170089e-04
-7.75844911e-04 1.32177152e-03 -8.77566284e-04
-7.10926641e-04 1.31047241e-03 -9.20077262e-04
-5.96567586e-04 1.32127906e-03 -9.99415260e-04
-4.68543649e-04 1.35049864e-03 -1.08338603e-03
-3.95647913e-04 1.31336432e-03 -1.10363981e-03
-3.31374515e-04 1.34932657e-03 -1.13663630e-03
-2.56909355e-04 1.32143498e-03 -1.14929624e-03
-1.67993392e-04 1.34169272e-03 -1.17137420e-03
-7.62442130e-05 1.31557778e-03 -1.17853304e-03
-2.13122461e-07 1.35245331e-03 -1.19072115e-03
7.55141386e-05 1.31589744e-03 -1.17870675e-03
1.67548486e-04 1.34130809e-03 -1.17192515e-03
2.56542701e-04 1.32158691e-03 -1.14880025e-03
3.31032589e-04 1.34887234e-03 -1.13736852e-03
3.95779481e-04 1.31399909e-03 -1.10392311e-03
4.68102677e-04 1.35020278e-03 -1.08349460e-03
5.97004191e-04 1.32163372e-03 -9.99600656e-04
7.10364418e-04 1.31091514e-03 -9.20017800e-04
7.75394475e-04 1.32214724e-03 -8.76921098e-04
8.37702509e-04 1.36740137e-03 -8.36399901e-04
-8.45879659e-04 1.43585275e-03 -8.47308094e-04
-7.57594879e-04 1.39705258e-03 -9.07101095e-04
-6.66282651e-04 1.35751247e-03 -9.65105325e-04
-5.47454601e-04 1.38806643e-03 -1.04547346e-03
-4.88966383e-04 1.42784941e-03 -1.08721753e-03
-3.99686331e-04 1.40706630e-03 -1.12234190e-03
-3.16613652e-04 1.43176215e-03 -1.15768633e-03
-2.35361397e-04 1.40985428e-03 -1.17144956e-03
-1.55144706e-04 1.42142219e-03 -1.19065338e-03
-7.74933968e-05 1.40332871e-03 -1.19620506e-03
-3.75403065e-07 1.43743809e-03 -1.20396153e-03
7.68782455e-05 1.40439891e-03 -1.19748610e-03
1.55125552e-04 1.42170825e-03 -1.19152089e-03
2.35397716e-04 1.41068904e-03 -1.17161432e-03
3.17668866e-04 1.43255428e-03 -1.15706231e-03
3.99217850e-04 1.40717731e-03 -1.12256438e-03
4.88937160e-04 1.42811757e-03 -1.08754565e-03
5.48294341e-04 1.38811644e-03 -1.04529260e-03
6.66019613e-04 1.35734952e-03 -9.63805435e-04
7.57323617e-04 1.39692356e-03 -9.06762262e-04
8.46375233e-04 1.43563213e-03 -8.47078642e-04
-8.56948081e-04 1.50884572e-03 -8.50640769e-04
-7.90489343e-04 1.47830441e-03 -8.99918951e-04
-6.16121486e-04 1.42214339e-03 -1.00824715e-03
-5.75575886e-04 1.48337809e-03 -1.04285268e-03
-5.15686909e-04 1.51121958e-03 -1.08450847e-03
-4.40325244e-04 1.49189069e-03 -1.11981118e-03
-3.63912360e-04 1.49207690e-03 -1.15097466e-03
-2.61900287e-04 1.50156385e-03 -1.17939269e-03
-1.73187699e-04 1.49934291e-03 -1.19652553e-03
-8.66133329e-05 1.49001545e-03 -1.20637677e-03
1.74257106e-07 1.51761253e-03 -1.21304670e-03
8.70987647e-05 1.49102463e-03 -1.20636668e-03
1.73691111e-04 1.49981006e-03 -1.19602498e-03
2.61770977e-04 1.50168731e-03 -1.17922262e-03
3.63880134e-04 1.49242501e-03 -1.15159589e-03
4.40196336e-04 1.49242632e-03 -1.11991615e-03
5.16099302e-04 1.51163403e-03 -1.08407325e-03
5.75492047e-04 1.48348189e-03 -1.04243976e-03
6.15933532e-04 1.42216792e-03 -1.00790295e-03
7.90654944e-04 1.47802212e-03 -9.00127520e-04
8.55319211e-04 1.50887586e-03 -8.53501133e-04
-8.51677031e-04 1.57629046e-03 -8.59663857e-04
-7.82444355e-04 1.57737470e-03 -9.09751576e-04
[...]
POINT_DATA 20213
SCALARS pressure double 1
LOOKUP_TABLE default
0.00000000e+00
0.00000000e+00
8.78815587e+02
8.44453962e+02
7.07222723e+02
0.00000000e+00
0.00000000e+00
0.00000000e+00
0.00000000e+00
0.00000000e+00
8.35996929e+02
9.82330024e+02
7.29495946e+02
0.00000000e+00
0.00000000e+00
0.00000000e+00
0.00000000e+00
0.00000000e+00
0.00000000e+00
0.00000000e+00
0.00000000e+00
0.00000000e+00
0.00000000e+00
9.30303794e+02
7.84424778e+02
0.00000000e+00
0.00000000e+00
0.00000000e+00
0.00000000e+00
0.00000000e+00
0.00000000e+00
7.30840672e+02
0.00000000e+00
0.00000000e+00
0.00000000e+00
0.00000000e+00
0.00000000e+00
0.00000000e+00
0.00000000e+00
7.07232920e+02
0.00000000e+00
0.00000000e+00
0.00000000e+00
1.01133094e+03
0.00000000e+00
0.00000000e+00
0.00000000e+00
0.00000000e+00
6.60614825e+02
0.00000000e+00
7.39419143e+02
8.66305650e+02
0.00000000e+00
0.00000000e+00
0.00000000e+00
0.00000000e+00
5.68898423e+02
0.00000000e+00
0.00000000e+00
0.00000000e+00
0.00000000e+00
0.00000000e+00
0.00000000e+00
1.02956598e+03
1.19041315e+03
1.16149534e+03
0.00000000e+00
0.00000000e+00
6.34954563e+02
0.00000000e+00
7.77171399e+02
0.00000000e+00
7.43824305e+02
0.00000000e+00
7.59135563e+02
6.40146522e+02
0.00000000e+00
0.00000000e+00
0.00000000e+00
0.00000000e+00
8.67619803e+02
0.00000000e+00
6.90345018e+02
0.00000000e+00
1.27826084e+03
1.23814148e+03
0.00000000e+00
6.65524375e+02
0.00000000e+00
0.00000000e+00
0.00000000e+00
9.94051813e+02
9.08824643e+02
0.00000000e+00
7.24487231e+02
7.81141163e+02
0.00000000e+00
0.00000000e+00
0.00000000e+00
0.00000000e+00
8.37817489e+02
9.01351014e+02
0.00000000e+00
0.00000000e+00
0.00000000e+00
0.00000000e+00
1.24645963e+03
1.02422773e+03
9.23794463e+02
0.00000000e+00
9.64801497e+02
0.00000000e+00
1.02846472e+03
1.03561682e+03
0.00000000e+00
0.00000000e+00
8.01077386e+02
0.00000000e+00
0.00000000e+00
0.00000000e+00
0.00000000e+00
1.00927897e+03
8.57842722e+02
8.29199390e+02
7.99728289e+02
0.00000000e+00
1.25793665e+03
1.29598730e+03
0.00000000e+00
0.00000000e+00
0.00000000e+00
0.00000000e+00
1.12321677e+03
1.15340227e+03
0.00000000e+00
0.00000000e+00
0.00000000e+00
0.00000000e+00
0.00000000e+00
0.00000000e+00
9.30025528e+02
1.04430688e+03
9.22639232e+02
8.58205571e+02
0.00000000e+00
6.24009084e+02
6.38193694e+02
1.13587199e+03
1.28642607e+03
1.05023062e+03
0.00000000e+00
0.00000000e+00
9.71278951e+02
1.03879612e+03
1.17928669e+03
1.12766234e+03
0.00000000e+00
0.00000000e+00
0.00000000e+00
0.00000000e+00
0.00000000e+00
0.00000000e+00
9.33232125e+02
0.00000000e+00
0.00000000e+00
0.00000000e+00
0.00000000e+00
0.00000000e+00
0.00000000e+00
1.08950809e+03
0.00000000e+00
7.28215428e+02
9.31621469e+02
0.00000000e+00
0.00000000e+00
1.13776409e+03
1.17114416e+03
1.08419207e+03
0.00000000e+00
0.00000000e+00
0.00000000e+00
0.00000000e+00
8.43398340e+02
9.32978582e+02
0.00000000e+00
0.00000000e+00
0.00000000e+00
0.00000000e+00
0.00000000e+00
0.00000000e+00
0.00000000e+00
7.88489224e+02
0.00000000e+00
7.71968776e+02
8.96446716e+02
0.00000000e+00
0.00000000e+00
0.00000000e+00
1.20782719e+03
1.27320333e+03
0.00000000e+00
1.07831582e+03
0.00000000e+00
0.00000000e+00
1.05061763e+03
0.00000000e+00
0.00000000e+00
0.00000000e+00
0.00000000e+00
6.32925192e+02
0.00000000e+00
0.00000000e+00
7.70630421e+02
0.00000000e+00
0.00000000e+00
0.00000000e+00
0.00000000e+00
0.00000000e+00
1.23200812e+03
1.35189942e+03
1.44802752e+03
1.31243955e+03
1.29799262e+03
1.17014231e+03
0.00000000e+00
1.20863717e+03
1.21656323e+03
9.86130795e+02
0.00000000e+00
8.18217955e+02
6.73486948e+02
0.00000000e+00
0.00000000e+00
0.00000000e+00
0.00000000e+00
0.00000000e+00
0.00000000e+00
0.00000000e+00
9.65563003e+02
1.20935358e+03
1.35896432e+03
1.51120192e+03
1.47842158e+03
0.00000000e+00
1.31598376e+03
0.00000000e+00
1.32088581e+03
1.20622996e+03
9.72601950e+02
8.76023597e+02
8.49401247e+02
0.00000000e+00
0.00000000e+00
9.99159930e+02
0.00000000e+00
0.00000000e+00
0.00000000e+00
0.00000000e+00
0.00000000e+00
0.00000000e+00
1.15917549e+03
1.31107511e+03
1.60735305e+03
1.54792598e+03
1.40406725e+03
1.37778207e+03
1.34467343e+03
1.23061956e+03
1.23383721e+03
9.51228555e+02
0.00000000e+00
8.66977362e+02
0.00000000e+00
0.00000000e+00
1.34073121e+03
1.25934579e+03
0.00000000e+00
0.00000000e+00
0.00000000e+00
0.00000000e+00
8.28019785e+02
0.00000000e+00
0.00000000e+00
1.32818076e+03
1.25985770e+03
1.33378986e+03
1.27473637e+03
0.00000000e+00
1.12082919e+03
0.00000000e+00
0.00000000e+00
0.00000000e+00
6.97552891e+02
0.00000000e+00
1.53890449e+03
1.62643622e+03
1.15215541e+03
0.00000000e+00
0.00000000e+00
0.00000000e+00
8.83613821e+02
7.94387941e+02
9.03164329e+02
0.00000000e+00
1.06035960e+03
8.32428052e+02
0.00000000e+00
9.74409215e+02
1.09270372e+03
9.94654102e+02
8.85763296e+02
0.00000000e+00
0.00000000e+00
0.00000000e+00
5.39021906e+02
1.71054844e+03
1.68730326e+03
1.48317124e+03
1.18833255e+03
0.00000000e+00
7.63842806e+02
6.39360450e+02
0.00000000e+00
0.00000000e+00
0.00000000e+00
0.00000000e+00
0.00000000e+00
0.00000000e+00
0.00000000e+00
0.00000000e+00
0.00000000e+00
9.51141875e+02
0.00000000e+00
0.00000000e+00
0.00000000e+00
0.00000000e+00
1.73208903e+03
1.48638897e+03
1.13974358e+03
0.00000000e+00
0.00000000e+00
7.20194084e+02
0.00000000e+00
0.00000000e+00
0.00000000e+00
0.00000000e+00
0.00000000e+00
0.00000000e+00
0.00000000e+00
0.00000000e+00
0.00000000e+00
0.00000000e+00
9.35298895e+02
7.79141293e+02
0.00000000e+00
5.99162320e+02
0.00000000e+00
1.60461558e+03
1.59699748e+03
0.00000000e+00
0.00000000e+00
0.00000000e+00
9.39741540e+02
0.00000000e+00
8.63403594e+02
0.00000000e+00
5.09981070e+02
0.00000000e+00
0.00000000e+00
0.00000000e+00
0.00000000e+00
0.00000000e+00
7.09743537e+02
7.84061970e+02
8.17237088e+02
0.00000000e+00
0.00000000e+00
0.00000000e+00
1.36864109e+03
1.29518879e+03
1.20155770e+03
1.07862335e+03
9.25353872e+02
9.05733451e+02
9.19540904e+02
8.98287280e+02
0.00000000e+00
7.67025025e+02
0.00000000e+00
0.00000000e+00
0.00000000e+00
0.00000000e+00
0.00000000e+00
0.00000000e+00
8.53718930e+02
0.00000000e+00
9.88036943e+02
1.07734892e+03
8.96379090e+02
0.00000000e+00
1.05530765e+03
9.49273438e+02
8.81258801e+02
0.00000000e+00
7.66557814e+02
0.00000000e+00
7.75049683e+02
7.98369512e+02
6.47503888e+02
0.00000000e+00
0.00000000e+00
0.00000000e+00
0.00000000e+00
0.00000000e+00
6.67269232e+02
0.00000000e+00
0.00000000e+00
9.01578051e+02
1.07466305e+03
0.00000000e+00
0.00000000e+00
0.00000000e+00
0.00000000e+00
0.00000000e+00
0.00000000e+00
0.00000000e+00
0.00000000e+00
0.00000000e+00
0.00000000e+00
0.00000000e+00
0.00000000e+00
0.00000000e+00
0.00000000e+00
5.93271665e+02
6.50425774e+02
0.00000000e+00
0.00000000e+00
0.00000000e+00
7.88230383e+02
0.00000000e+00
0.00000000e+00
0.00000000e+00
7.70384802e+02
0.00000000e+00
7.51150684e+02
0.00000000e+00
6.34153804e+02
0.00000000e+00
0.00000000e+00
0.00000000e+00
0.00000000e+00
9.56559052e+02
1.06467110e+03
9.55293001e+02
0.00000000e+00
0.00000000e+00
0.00000000e+00
0.00000000e+00
5.93098112e+02
9.26843753e+02
1.10888453e+03
0.00000000e+00
0.00000000e+00
1.23494645e+03
9.49554705e+02
9.72766302e+02
9.04251826e+02
7.53813358e+02
6.52363629e+02
7.37682033e+02
1.02111075e+03
9.16086368e+02
1.08050549e+03
9.91906093e+02
1.09318648e+03
8.76335020e+02
6.92569550e+02
5.88973405e+02
6.71440169e+02
8.45853536e+02
9.65584629e+02
1.29740848e+03
1.08707372e+03
9.15707067e+02
9.97653030e+02
1.14385273e+03
1.04809902e+03
1.13200749e+03
9.18494782e+02
7.91606305e+02
0.00000000e+00
0.00000000e+00
6.99456026e+02
0.00000000e+00
0.00000000e+00
0.00000000e+00
0.00000000e+00
6.93987640e+02
6.93257795e+02
9.27276066e+02
7.31683485e+02
9.53670812e+02
9.93762519e+02
1.05504491e+03
0.00000000e+00
1.12515026e+03
1.19123514e+03
1.21858174e+03
9.54890576e+02
8.76122526e+02
8.17459981e+02
8.58434353e+02
1.00821543e+03
8.49589417e+02
1.08070734e+03
8.13222640e+02
9.80210667e+02
7.16449767e+02
7.08122297e+02
7.32577076e+02
7.15644126e+02
9.81258208e+02
8.15193624e+02
9.39402958e+02
0.00000000e+00
0.00000000e+00
1.23882311e+03
1.29612728e+03
1.18097091e+03
1.11057125e+03
8.65296134e+02
1.05542692e+03
9.86810318e+02
1.02840284e+03
9.76649152e+02
8.91908934e+02
8.92911752e+02
9.61337960e+02
8.17736164e+02
9.48553932e+02
7.68217734e+02
1.11581290e+03
9.03090985e+02
1.04656123e+03
8.65648948e+02
0.00000000e+00
0.00000000e+00
1.28778858e+03
1.30393798e+03
1.16855282e+03
9.25559285e+02
0.00000000e+00
9.11089064e+02
9.92110451e+02
1.08337184e+03
1.02089680e+03
9.33331958e+02
8.13202752e+02
8.22818312e+02
7.79756346e+02
7.47493806e+02
8.42672353e+02
1.00547373e+03
9.79946656e+02
9.41325033e+02
8.01549994e+02
0.00000000e+00
1.13509784e+03
1.27012604e+03
1.29490384e+03
1.07682965e+03
1.16740508e+03
8.92797029e+02
1.11741391e+03
1.20017919e+03
1.17131025e+03
1.02443840e+03
8.57760013e+02
7.31591934e+02
8.37630692e+02
7.73287095e+02
9.68799534e+02
9.17886941e+02
1.08317348e+03
8.30266419e+02
8.80442892e+02
7.69861030e+02
0.00000000e+00
1.07976738e+03
1.08432418e+03
8.82066920e+02
9.97977018e+02
9.44244452e+02
8.71316354e+02
1.16506665e+03
1.20093429e+03
1.18636117e+03
1.09451174e+03
1.06164581e+03
9.00185990e+02
9.68788370e+02
9.39212962e+02
9.29200314e+02
1.04683572e+03
8.98829501e+02
7.33678137e+02
0.00000000e+00
7.60253763e+02
0.00000000e+00
9.03290973e+02
1.12771425e+03
0.00000000e+00
1.19186029e+03
1.08110116e+03
9.79720647e+02
1.09370571e+03
1.14904669e+03
1.29656738e+03
1.24807250e+03
1.22142454e+03
1.06426444e+03
1.20773666e+03
1.20025018e+03
1.03177364e+03
1.03255085e+03
1.02220038e+03
9.87525215e+02
0.00000000e+00
1.00832675e+03
6.65501715e+02
0.00000000e+00
8.12716268e+02
9.50972909e+02
1.02949029e+03
9.59010092e+02
9.71555418e+02
1.00546302e+03
1.15771987e+03
1.25952464e+03
1.29605863e+03
1.24153806e+03
1.19639636e+03
1.21977344e+03
1.20381148e+03
1.11439425e+03
1.13830777e+03
1.02501211e+03
8.66341913e+02
0.00000000e+00
8.46700233e+02
0.00000000e+00
0.00000000e+00
1.04708077e+03
8.52356035e+02
1.17267385e+03
9.22875534e+02
8.78382413e+02
8.77092326e+02
1.14027880e+03
1.28431878e+03
1.36123215e+03
1.45423818e+03
1.41583863e+03
1.38986592e+03
1.37963095e+03
1.30397061e+03
1.27498417e+03
1.02886570e+03
1.17642635e+03
8.21198387e+02
1.05224528e+03
0.00000000e+00
0.00000000e+00
7.83242977e+02
7.98952590e+02
9.90484948e+02
7.50595779e+02
7.34603158e+02
9.03827000e+02
1.18176293e+03
1.20127966e+03
1.42264198e+03
1.50560868e+03
1.49705941e+03
1.45989265e+03
1.40121564e+03
1.38712114e+03
1.36149487e+03
1.23396050e+03
1.00793374e+03
0.00000000e+00
9.01683319e+02
0.00000000e+00
0.00000000e+00
1.12979379e+03
8.31127967e+02
1.19199490e+03
1.00717133e+03
7.24319841e+02
8.29853054e+02
1.01235031e+03
1.26968818e+03
1.26374874e+03
1.38720832e+03
1.39659403e+03
1.41136705e+03
1.40777790e+03
1.27520962e+03
1.24584917e+03
1.16833340e+03
1.15801112e+03
8.92979625e+02
1.09023971e+03
0.00000000e+00
1.11333298e+03
1.04657992e+03
9.71661236e+02
9.75884702e+02
7.87372124e+02
7.33881956e+02
9.39032294e+02
1.18853541e+03
1.05673819e+03
1.33020784e+03
1.28092120e+03
1.45311334e+03
1.14103143e+03
1.43970018e+03
1.37547708e+03
1.10342922e+03
1.09974042e+03
9.67355549e+02
8.32341443e+02
8.85569635e+02
0.00000000e+00
1.50228385e+03
1.41775912e+03
1.54375010e+03
1.24395156e+03
1.28338280e+03
9.17710550e+02
8.92799185e+02
1.00819898e+03
8.91367314e+02
1.04885517e+03
9.85617072e+02
1.18370791e+03
1.00718530e+03
1.26298676e+03
1.10457318e+03
9.62543898e+02
1.10971003e+03
8.83471176e+02
8.72838631e+02
8.47029085e+02
0.00000000e+00
1.59813399e+03
1.64999394e+03
1.61503915e+03
1.41312049e+03
1.04956648e+03
0.00000000e+00
9.32948952e+02
8.28100015e+02
7.78021821e+02
8.11370234e+02
7.38263332e+02
8.42474000e+02
7.39217630e+02
7.44343662e+02
6.26896186e+02
9.53881068e+02
9.45516908e+02
8.87327043e+02
8.95085200e+02
8.19430192e+02
0.00000000e+00
1.40542014e+03
1.64318553e+03
1.51353082e+03
1.38359173e+03
1.18157634e+03
9.94361088e+02
1.14970789e+03
8.20296098e+02
8.95448537e+02
7.08457803e+02
6.48960736e+02
6.21781399e+02
7.64623051e+02
6.01116614e+02
9.60787592e+02
8.39870790e+02
1.15955875e+03
8.81410032e+02
1.12310039e+03
9.31655173e+02
0.00000000e+00
1.45564806e+03
1.43119456e+03
1.38868686e+03
1.32880317e+03
1.09015845e+03
1.07358044e+03
1.01293494e+03
9.11182336e+02
1.04724848e+03
7.79453741e+02
9.77843249e+02
6.44377373e+02
8.46421595e+02
5.38207422e+02
6.37208616e+02
8.28664978e+02
9.31303824e+02
1.11066416e+03
1.00043819e+03
1.06621619e+03
8.53322150e+02
1.03106669e+03
1.08170341e+03
1.23334767e+03
1.12125158e+03
1.17171466e+03
1.00828006e+03
9.88943796e+02
8.30416661e+02
0.00000000e+00
0.00000000e+00
4.69981288e+02
0.00000000e+00
0.00000000e+00
0.00000000e+00
7.68174292e+02
8.93263343e+02
1.11392638e+03
9.87018886e+02
1.15089893e+03
1.12568711e+03
0.00000000e+00
0.00000000e+00
1.21539797e+03
8.62166855e+02
8.56855961e+02
8.28399229e+02
7.90937147e+02
7.70303092e+02
7.33481646e+02
9.11299286e+02
6.42130803e+02
8.93036687e+02
5.98961630e+02
8.83855372e+02
6.82414895e+02
7.80918046e+02
7.99161604e+02
8.73788343e+02
9.93050090e+02
1.07511202e+03
1.36654878e+03
1.07963453e+03
0.00000000e+00
0.00000000e+00
0.00000000e+00
0.00000000e+00
0.00000000e+00
0.00000000e+00
0.00000000e+00
0.00000000e+00
0.00000000e+00
0.00000000e+00
0.00000000e+00
0.00000000e+00
5.83394290e+02
7.17470789e+02
7.28484380e+02
0.00000000e+00
0.00000000e+00
0.00000000e+00
0.00000000e+00
0.00000000e+00
0.00000000e+00
0.00000000e+00
0.00000000e+00
0.00000000e+00
0.00000000e+00
0.00000000e+00
0.00000000e+00
0.00000000e+00
0.00000000e+00
0.00000000e+00
0.00000000e+00
9.55108194e+02
1.10547317e+03
0.00000000e+00
0.00000000e+00
0.00000000e+00
0.00000000e+00
0.00000000e+00
0.00000000e+00
0.00000000e+00
1.14056147e+03
1.24774632e+03
8.03590966e+02
8.82951995e+02
8.88534473e+02
7.35877604e+02
9.62594012e+02
7.82473924e+02
6.68315326e+02
6.03928075e+02
8.38667900e+02
0.00000000e+00
9.55944871e+02
1.08367921e+03
1.03519442e+03
0.00000000e+00
7.13076187e+02
6.93530493e+02
9.72341962e+02
8.75699911e+02
1.13541853e+03
1.17809126e+03
1.34190916e+03
9.36673171e+02
1.05880574e+03
1.39399794e+03
1.14215280e+03
1.36870049e+03
1.14372452e+03
9.84039407e+02
9.19060087e+02
1.21597502e+03
1.13691043e+03
1.25144071e+03
1.18963448e+03
1.17911656e+03
9.77298119e+02
9.07161739e+02
1.01563098e+03
1.25223094e+03
1.09878592e+03
1.27584046e+03
1.24434906e+03
1.20729196e+03
9.34380201e+02
1.04315911e+03
1.25207444e+03
1.35358666e+03
1.27472919e+03
1.08868904e+03
1.16540860e+03
1.04105620e+03
7.60390325e+02
8.14761270e+02
8.85157412e+02
8.28694744e+02
7.50757798e+02
9.98205212e+02
1.04784179e+03
9.70670837e+02
1.10485769e+03
1.18558263e+03
1.17479419e+03
1.09486988e+03
1.05025861e+03
0.00000000e+00
1.21828917e+03
1.43260117e+03
1.36520726e+03
1.52843359e+03
1.57764791e+03
1.35894962e+03
1.05846166e+03
1.22038538e+03
1.08317626e+03
1.32014664e+03
1.07876898e+03
1.21213147e+03
9.74687376e+02
1.28959651e+03
1.38283152e+03
1.33148640e+03
1.18299836e+03
1.27222428e+03
1.14183549e+03
8.74050644e+02
1.00790747e+03
1.16882684e+03
1.37475741e+03
1.17647493e+03
1.58849479e+03
1.35347142e+03
1.13388010e+03
1.14769934e+03
1.24132247e+03
1.16703949e+03
1.53307991e+03
1.13278264e+03
1.23309246e+03
1.00790141e+03
1.03137662e+03
1.20938396e+03
1.39949826e+03
1.09115630e+03
1.14852191e+03
9.04468498e+02
0.00000000e+00
8.69403659e+02
1.21891760e+03
1.36434312e+03
1.40745548e+03
1.43130982e+03
1.09596038e+03
9.52912828e+02
8.96858619e+02
1.24088133e+03
1.14266913e+03
1.07852945e+03
1.03684981e+03
1.18503565e+03
8.84557469e+02
8.89387526e+02
1.15248383e+03
1.32870312e+03
1.17790823e+03
1.04399192e+03
7.98611074e+02
0.00000000e+00
9.60460522e+02
0.00000000e+00
1.27630935e+03
1.29704751e+03
1.11814461e+03
1.09398030e+03
8.66442465e+02
1.26246314e+03
1.27820731e+03
1.23901964e+03
1.08969284e+03
1.17277360e+03
1.11820040e+03
1.04643535e+03
1.03334105e+03
1.12763497e+03
1.02630612e+03
1.05523196e+03
9.72223097e+02
6.59460985e+02
0.00000000e+00
0.00000000e+00
0.00000000e+00
1.38843902e+03
1.18676971e+03
1.31924556e+03
1.29697710e+03
1.25632715e+03
1.24884581e+03
1.31174354e+03
1.28828012e+03
1.27492052e+03
1.26065923e+03
1.26379731e+03
1.20304297e+03
1.26379637e+03
1.31088956e+03
1.22348018e+03
7.74806477e+02
1.17394128e+03
7.31579950e+02
0.00000000e+00
0.00000000e+00
0.00000000e+00
1.26873333e+03
1.03803526e+03
1.20085348e+03
1.19765195e+03
1.11432271e+03
1.24439363e+03
1.31518171e+03
1.33146763e+03
1.29754307e+03
1.26965249e+03
1.31487145e+03
1.29206244e+03
1.21625363e+03
1.23121387e+03
1.11228578e+03
8.08734812e+02
1.12556579e+03
0.00000000e+00
0.00000000e+00
0.00000000e+00
0.00000000e+00
1.26268035e+03
9.79633733e+02
1.33273720e+03
1.52567890e+03
1.06402059e+03
1.08956196e+03
1.34379905e+03
1.32805703e+03
1.33536312e+03
1.35838208e+03
1.40214236e+03
1.36745488e+03
1.26217314e+03
1.59238412e+03
1.35279918e+03
9.59769852e+02
1.23521830e+03
0.00000000e+00
6.00294912e+02
0.00000000e+00
6.09827149e+02
1.26952843e+03
9.98141653e+02
1.18379702e+03
1.17035198e+03
1.02033247e+03
1.24250008e+03
1.34019123e+03
1.38504799e+03
1.38633841e+03
1.48742432e+03
1.40932438e+03
1.40303096e+03
1.34701271e+03
1.31109653e+03
1.18743826e+03
1.00080211e+03
1.23279657e+03
0.00000000e+00
0.00000000e+00
8.18049323e+02
0.00000000e+00
1.44693904e+03
1.22973305e+03
1.30698520e+03
1.27780685e+03
1.24854682e+03
1.15081840e+03
1.35182605e+03
1.38170149e+03
1.45521323e+03
1.43060732e+03
1.47291100e+03
1.37697355e+03
1.39603641e+03
1.36768725e+03
1.35010566e+03
9.49290328e+02
1.33050790e+03
0.00000000e+00
0.00000000e+00
0.00000000e+00
0.00000000e+00
1.32194923e+03
1.37445359e+03
1.11659397e+03
1.01954150e+03
8.68915205e+02
1.07060503e+03
1.15626737e+03
1.28644428e+03
1.07620857e+03
1.34389700e+03
1.25334857e+03
1.32660690e+03
1.04938077e+03
1.26155428e+03
1.15370471e+03
1.15318906e+03
1.07878432e+03
0.00000000e+00
6.08431181e+02
1.09714247e+03
1.46170669e+03
1.59007585e+03
1.53488713e+03
1.36812393e+03
1.12057418e+03
1.07611629e+03
9.01577528e+02
1.28386981e+03
9.91814247e+02
8.85528930e+02
9.82979631e+02
1.32126090e+03
9.43276560e+02
9.47687952e+02
1.21068995e+03
1.45844477e+03
1.21994277e+03
1.10001424e+03
9.27844341e+02
7.40503890e+02
1.36612203e+03
1.53946080e+03
1.57890153e+03
1.30271293e+03
1.50184603e+03
1.35742822e+03
1.11335234e+03
1.02175123e+03
1.29968782e+03
1.13078857e+03
1.68775293e+03
1.11112809e+03
1.30460731e+03
9.52159076e+02
1.04325662e+03
1.34833426e+03
1.61005143e+03
1.10111771e+03
1.21920943e+03
1.02497798e+03
9.02532760e+02
1.04543551e+03
1.40695165e+03
1.47384238e+03
1.43578073e+03
1.48459387e+03
1.52037088e+03
1.40025056e+03
1.05592386e+03
1.29702848e+03
1.03945381e+03
1.37311221e+03
9.88598409e+02
1.31541094e+03
8.67582132e+02
1.44302087e+03
1.59745282e+03
1.53213781e+03
1.27134907e+03
1.42914391e+03
1.21840087e+03
1.09271427e+03
0.00000000e+00
1.15966651e+03
1.38380478e+03
1.40296012e+03
1.31481517e+03
1.19675183e+03
1.25304129e+03
1.14780789e+03
9.30979147e+02
8.23270722e+02
7.30727320e+02
6.47961084e+02
6.65779159e+02
1.01383217e+03
1.15285798e+03
1.07390625e+03
1.26513634e+03
1.33226659e+03
1.26976260e+03
1.13720204e+03
1.14797337e+03
0.00000000e+00
1.01075590e+03
1.40041526e+03
1.09934876e+03
1.35292720e+03
1.12815868e+03
1.03905596e+03
9.66153195e+02
1.24084528e+03
1.14821357e+03
1.23881632e+03
1.14108242e+03
1.27839339e+03
9.52751342e+02
1.05119102e+03
1.17803855e+03
1.39968395e+03
1.22591114e+03
1.44650234e+03
1.21639049e+03
1.09353109e+03
0.00000000e+00
7.10949077e+02
7.76973906e+02
6.47073881e+02
9.20093304e+02
7.46450685e+02
7.32753638e+02
0.00000000e+00
0.00000000e+00
0.00000000e+00
0.00000000e+00
7.67774511e+02
0.00000000e+00
0.00000000e+00
9.06143108e+02
8.95797853e+02
1.10336653e+03
9.17028816e+02
1.11072033e+03
1.09753059e+03
1.04018541e+03
0.00000000e+00
0.00000000e+00
0.00000000e+00
5.33023009e+02
0.00000000e+00
0.00000000e+00
0.00000000e+00
0.00000000e+00
0.00000000e+00
0.00000000e+00
7.47739010e+02
8.87627997e+02
0.00000000e+00
0.00000000e+00
8.97765028e+02
0.00000000e+00
7.36784613e+02
6.90920231e+02
0.00000000e+00
0.00000000e+00
0.00000000e+00
6.27877753e+02
0.00000000e+00
0.00000000e+00
0.00000000e+00
0.00000000e+00
0.00000000e+00