# vtk DataFile Version 3.0
MPS 3D Simulation Step 6100
ASCII
DATASET UNSTRUCTURED_GRID
POINTS 20213 double
-1.07719232e-03 3.60913231e-04 -8.66376161e-04
-9.85684522e-04 2.14878861e-04 -8.92051294e-04
-8.60153053e-04 3.16432018e-04 -1.06464735e-03
-8.26506721e-04 3.67733098e-04 -1.11417938e-03
-7.68277580e-04 1.77277692e-04 -1.05071205e-03
-7.82147901e-04 4.15328212e-04 -1.16333662e-03
-6.10436919e-04 2.43912591e-04 -1.19961820e-03
-4.68947069e-04 2.63807420e-04 -1.26055483e-03
-4.00278612e-04 1.19368269e-04 -1.19028984e-03
-3.38183704e-04 7.78053561e-04 -1.13869032e-03
-1.38049030e-04 8.02984359e-04 -1.26622183e-03
-2.18714687e-04 7.40636487e-04 -1.26921388e-03
-1.31816451e-04 5.31272325e-04 -1.27260611e-03
-1.05013591e-05 1.95411548e-04 -1.31202860e-03
4.55331240e-05 1.41936557e-04 -1.27429541e-03
4.98160559e-04 1.50153231e-04 -1.17218383e-03
3.05594759e-04 6.46309925e-04 -9.36126683e-04
5.77880848e-04 1.59875753e-04 -1.15130895e-03
6.05803827e-04 4.77330682e-04 -1.01234951e-03
8.36630975e-04 6.31873898e-04 -8.98777644e-04
1.00650271e-03 3.65606645e-04 -7.58289810e-04
-1.03202554e-03 2.81594920e-04 -8.80684981e-04
-9.70402028e-04 2.87899616e-04 -9.51783897e-04
-9.33304828e-04 3.43067594e-04 -1.01275062e-03
-8.50935628e-04 4.53012483e-04 -1.12242949e-03
-7.95387623e-04 5.79066221e-04 -1.17386003e-03
-9.08643485e-04 4.96432320e-04 -1.08075820e-03
-7.24309687e-04 4.55215871e-04 -1.20665709e-03
-5.11648107e-04 4.03780226e-04 -1.29117990e-03
-3.67146018e-04 2.06060530e-04 -1.26985896e-03
-3.22846499e-04 1.50399795e-04 -1.25042912e-03
-1.00233085e-05 2.73824327e-04 -1.34203672e-03
1.28209308e-04 1.93349847e-04 -1.29600616e-03
2.08644086e-04 3.23686513e-04 -1.34074476e-03
2.88449359e-04 3.27080458e-04 -1.32568239e-03
3.08796316e-04 2.56975359e-04 -1.29003584e-03
4.20723782e-04 1.47827396e-04 -1.19421783e-03
4.60538246e-04 2.22279850e-04 -1.22946003e-03
5.28976569e-04 4.80680258e-04 -1.17439014e-03
5.38061881e-04 2.16557011e-04 -1.20393188e-03
6.72825856e-04 2.09692270e-04 -1.13965302e-03
8.64290387e-04 1.35368261e-04 -9.49064309e-04
-1.02133340e-03 3.50036255e-04 -9.29584153e-04
-9.86290830e-04 3.96209438e-04 -9.81106645e-04
-1.00702387e-03 6.09433415e-04 -9.94800792e-04
-7.71777272e-04 3.03561918e-04 -1.12467109e-03
-8.95564077e-04 3.99241140e-04 -1.06734247e-03
-7.96401670e-04 4.97447979e-04 -1.17052140e-03
-5.48705718e-04 3.37567280e-04 -1.25999567e-03
-6.27182866e-04 3.23005727e-04 -1.22199027e-03
-3.76356466e-04 3.63931119e-04 -1.32243966e-03
-3.01368688e-04 2.42125741e-04 -1.30300469e-03
-8.21182730e-05 4.04331840e-04 -1.37594130e-03
6.16408464e-05 2.27279162e-04 -1.32183289e-03
1.51280528e-04 4.34777628e-04 -1.37967698e-03
3.68382423e-04 3.35035155e-04 -1.30646587e-03
2.91296038e-04 1.87058754e-04 -1.25499641e-03
4.27855083e-04 3.84125941e-04 -1.30166933e-03
5.40389071e-04 2.93298333e-04 -1.23461344e-03
4.60707360e-04 3.04564537e-04 -1.26660163e-03
6.95910447e-04 2.86865031e-04 -1.16333856e-03
7.93633011e-04 1.99643407e-04 -1.05356566e-03
7.94610729e-04 1.32465844e-04 -9.99268623e-04
-1.11096663e-03 4.37459300e-04 -8.41382929e-04
-1.01607363e-03 4.79521810e-04 -9.70272245e-04
-9.77712876e-04 5.34916630e-04 -1.01961869e-03
-8.57676276e-04 5.43516687e-04 -1.12845590e-03
-7.30017710e-04 5.32219319e-04 -1.21219246e-03
-6.72526934e-04 3.92214772e-04 -1.22039534e-03
-6.00414851e-04 4.08357466e-04 -1.25569770e-03
-3.09168430e-04 3.19009468e-04 -1.32728742e-03
-2.31642613e-04 3.36517590e-04 -1.34808272e-03
-2.55330974e-04 1.76574950e-04 -1.28263122e-03
-1.23738220e-05 4.45007909e-04 -1.38581764e-03
-1.10066265e-04 1.48579691e-04 -1.28974573e-03
9.12387475e-07 3.59428436e-04 -1.36862024e-03
7.10845707e-05 3.10708256e-04 -1.35081854e-03
2.40692462e-04 4.01807034e-04 -1.35633943e-03
3.91363582e-04 2.63350813e-04 -1.27168875e-03
4.75241905e-04 4.48636904e-04 -1.29955853e-03
7.48605192e-04 3.52736001e-04 -1.15661579e-03
7.64138693e-04 2.72546596e-04 -1.11612132e-03
8.33562224e-04 2.73938118e-04 -1.06321370e-03
9.04390408e-04 2.73328647e-04 -1.00172289e-03
-1.13292359e-03 5.22717019e-04 -8.27299199e-04
-9.55631075e-04 6.51369886e-04 -1.04241643e-03
-9.51567611e-04 4.47799359e-04 -1.03087055e-03
-7.33342365e-04 6.18886402e-04 -1.20673887e-03
-5.86978791e-04 5.40076800e-04 -1.27634576e-03
-6.49430243e-04 4.79310214e-04 -1.24561348e-03
-2.99039278e-04 4.04319042e-04 -1.34930117e-03
-2.21611515e-04 4.22051389e-04 -1.36581172e-03
-1.54764245e-04 3.61478144e-04 -1.36329073e-03
-6.87324715e-05 5.05325081e-04 -1.39035214e-03
5.68688127e-06 5.44363946e-04 -1.39991454e-03
-1.48158911e-04 2.79191603e-04 -1.34048005e-03
6.29653590e-05 4.85640065e-04 -1.39296976e-03
2.72508791e-04 5.57967031e-04 -1.37710708e-03
7.23497115e-05 4.04320415e-04 -1.37790288e-03
3.28534672e-04 4.06581323e-04 -1.33794262e-03
3.87919575e-04 4.60835886e-04 -1.33120574e-03
6.20834898e-04 3.02737360e-04 -1.20813386e-03
8.14896066e-04 3.43833072e-04 -1.10728457e-03
8.85411410e-04 3.43239168e-04 -1.04785601e-03
8.60235096e-04 4.14826803e-04 -1.08849151e-03
-1.13379905e-03 6.57317955e-04 -8.43889412e-04
-1.04669041e-03 5.52971426e-04 -9.46842080e-04
-8.99957313e-04 6.93997607e-04 -1.08562001e-03
-9.28693334e-04 5.77487995e-04 -1.06877487e-03
-6.62543107e-04 5.64557536e-04 -1.24494926e-03
-4.74196003e-04 4.91443431e-04 -1.31491629e-03
-4.33189243e-04 4.21759852e-04 -1.32057673e-03
-3.63622569e-04 4.63527341e-04 -1.34213363e-03
-1.46316068e-04 4.57866585e-04 -1.37889996e-03
-2.09977559e-04 5.14828514e-04 -1.37875605e-03
-1.36970962e-04 5.53176857e-04 -1.38951914e-03
-7.74886201e-05 3.18833683e-04 -1.35689930e-03
2.15243538e-04 4.80908864e-04 -1.37874805e-03
2.99255390e-04 4.81627323e-04 -1.36051925e-03
1.40875937e-04 2.69186343e-04 -1.32742675e-03
3.03198106e-04 7.10000628e-04 -1.36540346e-03
3.57020865e-04 5.42940963e-04 -1.35173596e-03
5.11451087e-04 3.69983944e-04 -1.27101781e-03
6.74139172e-04 3.65166495e-04 -1.20076338e-03
7.91903445e-04 4.24756951e-04 -1.14350126e-03
9.71390218e-04 4.91124429e-04 -1.00201105e-03
-1.10265417e-03 5.89438255e-04 -8.79792882e-04
-1.08366828e-03 5.05102991e-04 -8.93266552e-04
-9.54529515e-04 7.39187975e-04 -1.03109146e-03
-8.10529398e-04 6.56314271e-04 -1.15743383e-03
-6.63739651e-04 6.50950160e-04 -1.23706443e-03
-5.09364051e-04 5.64912628e-04 -1.30543833e-03
-4.11405859e-04 5.33864286e-04 -1.33830357e-03
-2.85698355e-04 4.90480453e-04 -1.36516338e-03
-3.32892298e-04 5.55088478e-04 -1.36204116e-03
-2.56557216e-04 5.86563031e-04 -1.37780305e-03
-6.63691964e-05 5.97496406e-04 -1.39959279e-03
8.18256553e-05 5.91730689e-04 -1.40447854e-03
1.29953599e-04 5.22847135e-04 -1.39662253e-03
1.94461208e-04 5.64166106e-04 -1.39477734e-03
2.41860214e-04 6.39749071e-04 -1.38495697e-03
5.28493893e-04 5.19828110e-04 -1.28796509e-03
5.00286642e-04 5.95782993e-04 -1.30553566e-03
5.91898316e-04 3.70358965e-04 -1.23951582e-03
5.59699745e-04 4.43787068e-04 -1.26637322e-03
8.99970327e-04 4.89120664e-04 -1.06608703e-03
8.70077035e-04 5.69817334e-04 -1.09813946e-03
-1.14600461e-03 7.37648068e-04 -8.15682386e-04
-1.06043257e-03 6.40093591e-04 -9.35372624e-04
-1.01126485e-03 6.94535746e-04 -9.84400116e-04
-8.74983301e-04 6.22454434e-04 -1.11321185e-03
-5.87247435e-04 6.20290298e-04 -1.27328780e-03
-4.37648079e-04 6.11231809e-04 -1.33285305e-03
-4.46569143e-04 6.97421157e-04 -1.32538301e-03
-3.63564902e-04 6.33254400e-04 -1.35685573e-03
-2.91635107e-04 6.59045661e-04 -1.37284504e-03
-1.81445416e-04 6.20501707e-04 -1.38939332e-03
-1.09915937e-04 6.66273734e-04 -1.39716909e-03
5.76127980e-06 6.32795758e-04 -1.40584792e-03
7.23771978e-05 6.78905080e-04 -1.40582432e-03
1.55995946e-04 6.34225409e-04 -1.40049185e-03
2.21088904e-04 7.19114161e-04 -1.38312776e-03
4.41919024e-04 5.29431558e-04 -1.32187868e-03
4.12478669e-04 6.06441079e-04 -1.33693963e-03
5.80527481e-04 5.95430011e-04 -1.27177080e-03
6.44033720e-04 4.40853470e-04 -1.22910765e-03
8.31854818e-04 4.98183547e-04 -1.12204472e-03
8.46679913e-04 6.54132991e-04 -1.11648676e-03
-1.09407031e-03 7.00347814e-04 -8.94781894e-04
-1.05030365e-03 7.51030507e-04 -9.36784569e-04
-9.95603449e-04 7.94305712e-04 -9.81516968e-04
-6.74208333e-04 7.31089216e-04 -1.22060257e-03
-5.97352099e-04 7.05114732e-04 -1.26204848e-03
-5.15669658e-04 6.51501380e-04 -1.30261388e-03
-4.58378545e-04 7.78199081e-04 -1.30991115e-03
-3.70057703e-04 7.13967024e-04 -1.34982033e-03
-2.95387978e-04 7.43439858e-04 -1.36396294e-03
-2.17199800e-04 6.93764586e-04 -1.38297309e-03
-1.46181644e-04 7.38097115e-04 -1.38742860e-03
-3.48773492e-05 7.03669107e-04 -1.39954205e-03
3.45480101e-05 7.49562654e-04 -1.39791241e-03
1.04684325e-04 7.87458514e-04 -1.39017033e-03
1.40417112e-04 7.16837746e-04 -1.39794112e-03
3.85148501e-04 6.86152898e-04 -1.34321205e-03
4.16528932e-04 8.31073855e-04 -1.31668371e-03
4.71638049e-04 6.72950453e-04 -1.31520033e-03
6.11539787e-04 5.19960034e-04 -1.25356386e-03
7.21576801e-04 4.34393666e-04 -1.18927813e-03
8.02780443e-04 5.81556119e-04 -1.15120607e-03
-1.10180877e-03 7.84058339e-04 -8.66302104e-04
-9.92758300e-04 8.77235571e-04 -9.56352341e-04
-8.92053260e-04 7.83052473e-04 -1.07138349e-03
-7.45964473e-04 7.00389122e-04 -1.18829631e-03
-6.89394768e-04 8.06864921e-04 -1.19609552e-03
-5.27263291e-04 7.34671768e-04 -1.29122156e-03
-5.38080592e-04 8.16625430e-04 -1.27156189e-03
-3.82228361e-04 7.93272596e-04 -1.33358706e-03
-3.04190762e-04 8.22689484e-04 -1.34595016e-03
-2.22391519e-04 7.79163083e-04 -1.37092921e-03
-1.51536438e-04 8.23759893e-04 -1.36859832e-03
-7.28157116e-05 7.75077352e-04 -1.38580708e-03
-2.75115553e-06 8.19767153e-04 -1.37986869e-03
7.36168757e-05 8.57087042e-04 -1.37330950e-03
1.89782603e-04 7.96015606e-04 -1.37676053e-03
3.58705584e-04 7.73410718e-04 -1.34124530e-03
4.93813416e-04 8.29509034e-04 -1.28928515e-03
4.42711977e-04 7.49081444e-04 -1.31972677e-03
6.58678968e-04 5.97149102e-04 -1.23624397e-03
7.62391421e-04 5.10396911e-04 -1.17348805e-03
8.22373936e-04 7.37956350e-04 -1.12817958e-03
-1.04748394e-03 8.30800100e-04 -9.13349444e-04
-9.84595662e-04 9.57279933e-04 -9.22678726e-04
[...]
POINT_DATA 20213
SCALARS pressure double 1
LOOKUP_TABLE default
0.00000000e+00
0.00000000e+00
9.91759413e+02
0.00000000e+00
0.00000000e+00
0.00000000e+00
1.55998180e+03
1.68341205e+03
1.21619810e+03
1.11219213e+03
1.03423937e+03
9.65385990e+02
6.86210220e+02
0.00000000e+00
0.00000000e+00
0.00000000e+00
1.81980426e+03
0.00000000e+00
1.05503644e+03
1.21863715e+03
6.25370739e+02
0.00000000e+00
0.00000000e+00
9.79221726e+02
0.00000000e+00
9.75980605e+02
8.33349822e+02
0.00000000e+00
1.75734643e+03
1.37086300e+03
1.23280623e+03
0.00000000e+00
0.00000000e+00
0.00000000e+00
0.00000000e+00
7.65934130e+02
6.40575146e+02
7.83800521e+02
9.47147261e+02
7.92941792e+02
0.00000000e+00
0.00000000e+00
0.00000000e+00
8.09546212e+02
0.00000000e+00
0.00000000e+00
9.69298255e+02
0.00000000e+00
1.80150009e+03
1.58117409e+03
1.29111606e+03
1.18294645e+03
0.00000000e+00
0.00000000e+00
0.00000000e+00
9.95046902e+02
6.25978101e+02
1.00629192e+03
1.03032204e+03
9.97212133e+02
0.00000000e+00
7.63822542e+02
6.61558425e+02
0.00000000e+00
7.17069411e+02
7.60773296e+02
0.00000000e+00
1.26927924e+03
1.40069442e+03
1.73838389e+03
1.20613507e+03
0.00000000e+00
1.01386911e+03
0.00000000e+00
0.00000000e+00
0.00000000e+00
0.00000000e+00
0.00000000e+00
8.53231668e+02
0.00000000e+00
0.00000000e+00
0.00000000e+00
0.00000000e+00
0.00000000e+00
0.00000000e+00
0.00000000e+00
0.00000000e+00
1.43027252e+03
1.67167346e+03
0.00000000e+00
0.00000000e+00
0.00000000e+00
0.00000000e+00
0.00000000e+00
0.00000000e+00
0.00000000e+00
0.00000000e+00
0.00000000e+00
0.00000000e+00
0.00000000e+00
8.85528851e+02
0.00000000e+00
0.00000000e+00
5.50324279e+02
0.00000000e+00
0.00000000e+00
5.70897702e+02
0.00000000e+00
0.00000000e+00
1.56861034e+03
1.43858621e+03
0.00000000e+00
8.79851401e+02
0.00000000e+00
0.00000000e+00
0.00000000e+00
0.00000000e+00
0.00000000e+00
0.00000000e+00
0.00000000e+00
6.74407939e+02
6.10013897e+02
1.05837555e+03
0.00000000e+00
0.00000000e+00
6.84967646e+02
0.00000000e+00
0.00000000e+00
0.00000000e+00
0.00000000e+00
1.54728522e+03
0.00000000e+00
0.00000000e+00
0.00000000e+00
0.00000000e+00
0.00000000e+00
0.00000000e+00
0.00000000e+00
0.00000000e+00
0.00000000e+00
0.00000000e+00
0.00000000e+00
7.06023267e+02
7.68352546e+02
9.06868212e+02
0.00000000e+00
8.90890492e+02
0.00000000e+00
5.67651451e+02
0.00000000e+00
0.00000000e+00
1.53294097e+03
0.00000000e+00
9.23836808e+02
0.00000000e+00
0.00000000e+00
0.00000000e+00
0.00000000e+00
0.00000000e+00
4.58636671e+02
0.00000000e+00
5.77166610e+02
0.00000000e+00
0.00000000e+00
6.80262474e+02
0.00000000e+00
0.00000000e+00
9.51998682e+02
0.00000000e+00
6.53122027e+02
0.00000000e+00
1.41051432e+03
1.44730703e+03
1.31105728e+03
7.63019269e+02
7.74240262e+02
7.48655631e+02
0.00000000e+00
8.55438688e+02
7.38320304e+02
0.00000000e+00
0.00000000e+00
0.00000000e+00
7.26187906e+02
0.00000000e+00
0.00000000e+00
0.00000000e+00
0.00000000e+00
7.80540304e+02
0.00000000e+00
0.00000000e+00
0.00000000e+00
1.27668125e+03
9.93218642e+02
0.00000000e+00
0.00000000e+00
0.00000000e+00
7.81892722e+02
8.93948102e+02
1.02269329e+03
8.80754070e+02
0.00000000e+00
0.00000000e+00
0.00000000e+00
8.01556306e+02
7.49455812e+02
8.84974208e+02
0.00000000e+00
7.03073257e+02
1.12620289e+03
6.58621321e+02
0.00000000e+00
9.51313975e+02
0.00000000e+00
1.11640453e+03
0.00000000e+00
0.00000000e+00
0.00000000e+00
0.00000000e+00
0.00000000e+00
7.66337639e+02
8.73165179e+02
8.92227319e+02
0.00000000e+00
0.00000000e+00
0.00000000e+00
0.00000000e+00
8.28341635e+02
8.67736580e+02
8.20374543e+02
9.56925059e+02
8.61057145e+02
0.00000000e+00
0.00000000e+00
0.00000000e+00
0.00000000e+00
0.00000000e+00
0.00000000e+00
0.00000000e+00
0.00000000e+00
0.00000000e+00
7.21633122e+02
7.26161436e+02
0.00000000e+00
0.00000000e+00
0.00000000e+00
5.72936259e+02
0.00000000e+00
6.83114343e+02
0.00000000e+00
1.11054121e+03
0.00000000e+00
1.04858916e+03
1.21501203e+03
1.01887871e+03
0.00000000e+00
0.00000000e+00
0.00000000e+00
0.00000000e+00
0.00000000e+00
5.71920920e+02
8.80796447e+02
8.25859753e+02
8.97793836e+02
0.00000000e+00
0.00000000e+00
0.00000000e+00
0.00000000e+00
0.00000000e+00
7.01141216e+02
7.08998340e+02
0.00000000e+00
1.14594569e+03
1.20218192e+03
1.04857294e+03
1.24487033e+03
8.71002782e+02
0.00000000e+00
0.00000000e+00
6.43462123e+02
6.64555344e+02
6.12191507e+02
0.00000000e+00
8.34187487e+02
8.20664613e+02
0.00000000e+00
0.00000000e+00
0.00000000e+00
0.00000000e+00
7.44266343e+02
0.00000000e+00
6.28866317e+02
0.00000000e+00
0.00000000e+00
1.17636841e+03
0.00000000e+00
0.00000000e+00
1.17475080e+03
0.00000000e+00
9.00745950e+02
7.43319419e+02
0.00000000e+00
6.10269636e+02
0.00000000e+00
0.00000000e+00
0.00000000e+00
0.00000000e+00
0.00000000e+00
8.41311342e+02
0.00000000e+00
0.00000000e+00
7.81630144e+02
6.25253119e+02
7.35525678e+02
8.77593525e+02
0.00000000e+00
1.03104944e+03
1.33173179e+03
1.36790549e+03
1.24870952e+03
8.78344190e+02
0.00000000e+00
0.00000000e+00
0.00000000e+00
0.00000000e+00
0.00000000e+00
8.35463792e+02
1.19546717e+03
1.23390544e+03
1.06758899e+03
9.59382117e+02
7.63353269e+02
0.00000000e+00
0.00000000e+00
0.00000000e+00
0.00000000e+00
0.00000000e+00
1.36202079e+03
1.40502918e+03
1.43417300e+03
1.45994279e+03
0.00000000e+00
1.05278784e+03
0.00000000e+00
0.00000000e+00
0.00000000e+00
0.00000000e+00
0.00000000e+00
1.20299146e+03
1.38101910e+03
1.26776492e+03
0.00000000e+00
0.00000000e+00
0.00000000e+00
0.00000000e+00
0.00000000e+00
0.00000000e+00
0.00000000e+00
1.64044314e+03
1.76327200e+03
1.58724813e+03
1.69998232e+03
1.69380173e+03
1.80011676e+03
1.08428843e+03
0.00000000e+00
0.00000000e+00
0.00000000e+00
1.07450237e+03
1.34654967e+03
1.24303771e+03
1.09845395e+03
0.00000000e+00
9.98611674e+02
9.32641217e+02
0.00000000e+00
0.00000000e+00
0.00000000e+00
1.01257706e+03
1.27855527e+03
1.51394743e+03
1.87066332e+03
1.80019748e+03
1.54606337e+03
1.45626180e+03
1.28796893e+03
1.48886321e+03
0.00000000e+00
0.00000000e+00
1.19918631e+03
1.29150422e+03
0.00000000e+00
0.00000000e+00
1.35087742e+03
1.16155683e+03
1.15847849e+03
0.00000000e+00
5.48889297e+02
0.00000000e+00
1.20638420e+03
0.00000000e+00
1.68193495e+03
1.86983638e+03
1.78624554e+03
1.79715863e+03
0.00000000e+00
1.14540247e+03
0.00000000e+00
0.00000000e+00
8.15388968e+02
0.00000000e+00
1.26014559e+03
1.51776884e+03
1.50112122e+03
1.47548493e+03
0.00000000e+00
1.41554500e+03
1.31499668e+03
1.02182437e+03
0.00000000e+00
0.00000000e+00
0.00000000e+00
1.58512910e+03
1.75086095e+03
1.88542991e+03
1.56927123e+03
0.00000000e+00
0.00000000e+00
0.00000000e+00
0.00000000e+00
0.00000000e+00
1.12041873e+03
1.47651920e+03
1.60047709e+03
1.65657356e+03
1.54914615e+03
1.49568606e+03
1.50255720e+03
1.29827523e+03
0.00000000e+00
0.00000000e+00
0.00000000e+00
0.00000000e+00
9.45442546e+02
8.78243654e+02
0.00000000e+00
9.75863388e+02
1.43813945e+03
0.00000000e+00
1.53816507e+03
1.06287748e+03
1.42323079e+03
1.29143565e+03
5.86834762e+02
8.51662612e+02
1.16105304e+03
1.63119456e+03
7.62825014e+02
1.16180046e+03
1.09489396e+03
0.00000000e+00
0.00000000e+00
0.00000000e+00
1.28343754e+03
1.16904530e+03
1.79929414e+03
1.30464177e+03
1.44301177e+03
1.15489731e+03
1.07096007e+03
7.61802421e+02
1.62739236e+03
2.25924468e+03
2.17393116e+03
8.48717212e+02
2.18588337e+03
1.85704235e+03
1.33632461e+03
1.35117072e+03
1.11109988e+03
1.64081722e+03
9.77814561e+02
0.00000000e+00
7.35927273e+02
1.34067259e+03
1.51151486e+03
1.75215731e+03
1.01253101e+03
1.12369183e+03
1.70910136e+03
1.67736195e+03
7.32260804e+02
1.49104966e+03
0.00000000e+00
0.00000000e+00
0.00000000e+00
0.00000000e+00
2.25226464e+03
1.06213398e+03
1.15015284e+03
9.20940801e+02
1.50028434e+03
1.06248180e+03
7.11019254e+02
0.00000000e+00
1.22934060e+03
2.12311382e+03
1.23794820e+03
1.01174781e+03
2.26406429e+03
1.07119617e+03
1.31124261e+03
7.93169192e+02
1.20966397e+03
9.81287112e+02
1.29615119e+03
1.47210384e+03
1.31390456e+03
1.32761731e+03
1.07116246e+03
1.71850763e+03
1.17969488e+03
1.14569057e+03
1.90277774e+03
0.00000000e+00
0.00000000e+00
1.34695805e+03
1.67996723e+03
1.75011909e+03
2.21674627e+03
1.89342058e+03
1.53884095e+03
7.87484647e+02
9.58574068e+02
1.66385056e+03
1.93178363e+03
2.05799052e+03
9.71656432e+02
1.31134595e+03
6.94554002e+02
2.08199156e+03
8.81899714e+02
1.19245491e+03
1.45392173e+03
8.13147142e+02
7.68267773e+02
0.00000000e+00
2.21932186e+03
1.28246151e+03
1.52578758e+03
2.08372231e+03
1.74619933e+03
2.13575190e+03
1.44572502e+03
7.84491268e+02
9.03454045e+02
2.04585551e+03
1.26077729e+03
1.50481269e+03
1.44371142e+03
1.04749329e+03
0.00000000e+00
8.70029987e+02
1.06432987e+03
6.40338932e+02
1.43715607e+03
0.00000000e+00
0.00000000e+00
1.54488624e+03
1.51061426e+03
1.47212121e+03
1.65290220e+03
1.32091909e+03
1.65325709e+03
1.35764218e+03
8.48262014e+02
2.28975979e+03
9.54787394e+02
1.55809699e+03
2.32022728e+03
1.38303328e+03
1.38695304e+03
1.47063098e+03
1.35376626e+03
7.55424759e+02
9.12489342e+02
6.53748711e+02
8.57600899e+02
0.00000000e+00
1.28768799e+03
7.62932552e+02
1.54543806e+03
1.48352687e+03
1.72732462e+03
1.17229008e+03
1.89184006e+03
1.69605044e+03
1.56257021e+03
1.32466275e+03
1.11895893e+03
2.11635092e+03
1.38847450e+03
1.62704091e+03
1.73797745e+03
6.46820432e+02
1.05799470e+03
0.00000000e+00
5.08320417e+02
0.00000000e+00
0.00000000e+00
1.75439661e+03
8.02256726e+02
1.08349622e+03
1.36771943e+03
1.43771521e+03
1.36458832e+03
1.70770899e+03
2.03805519e+03
7.70375913e+02
1.78316317e+03
2.16229586e+03
1.62933788e+03
1.43866170e+03
1.29944039e+03
1.07547500e+03
2.25014742e+03
2.18122056e+03
0.00000000e+00
1.14744934e+03
0.00000000e+00
0.00000000e+00
1.91730736e+03
7.94337961e+02
1.58219650e+03
1.36247496e+03
9.65345440e+02
8.22982170e+02
9.45550022e+02
1.57256321e+03
1.10007064e+03
1.08067093e+03
1.12617782e+03
2.23914383e+03
1.27348056e+03
1.38772703e+03
1.46285992e+03
8.87278975e+02
1.14423277e+03
8.32912250e+02
5.10026472e+02
1.07926335e+03
0.00000000e+00
1.53569587e+03
0.00000000e+00
1.71395561e+03
1.58155092e+03
1.58798655e+03
1.20892266e+03
1.31814115e+03
1.37915130e+03
1.62200733e+03
1.17391647e+03
1.69072279e+03
8.37244834e+02
1.73548361e+03
1.36959384e+03
1.25790586e+03
1.69925021e+03
2.40172197e+03
0.00000000e+00
1.50932114e+03
1.09900012e+03
1.05068235e+03
1.39779742e+03
0.00000000e+00
1.58994729e+03
1.68957831e+03
1.53125248e+03
1.22731218e+03
8.27767777e+02
2.26432186e+03
1.43248153e+03
2.12598155e+03
1.46112807e+03
1.62132702e+03
1.38555687e+03
1.53936793e+03
1.43785155e+03
1.42657369e+03
1.17829881e+03
8.08093685e+02
7.24585356e+02
9.99489455e+02
1.13854328e+03
1.55733768e+03
0.00000000e+00
1.59032397e+03
1.69192646e+03
1.77276433e+03
1.37261252e+03
1.68821028e+03
2.24386601e+03
1.29110369e+03
1.49328838e+03
1.93917822e+03
9.97053636e+02
2.31222731e+03
1.56061533e+03
1.51684420e+03
1.52508739e+03
2.32342686e+03
0.00000000e+00
2.05093076e+03
8.54310984e+02
1.10186401e+03
1.37923870e+03
9.30473007e+02
1.51714319e+03
1.77759446e+03
1.82600887e+03
1.56953389e+03
1.31428756e+03
1.66323191e+03
9.98761740e+02
1.17964537e+03
9.03531811e+02
1.36760972e+03
9.68550791e+02
1.48727088e+03
1.39997484e+03
1.29706663e+03
1.47919115e+03
9.50551550e+02
6.98545341e+02
0.00000000e+00
9.55570146e+02
1.60378499e+03
1.51531692e+03
1.55255632e+03
1.56669046e+03
1.76231812e+03
1.59765554e+03
2.17366447e+03
1.56334656e+03
1.08180784e+03
1.86300664e+03
1.29322454e+03
1.27036633e+03
1.03108900e+03
1.35620033e+03
1.49796444e+03
1.90546632e+03
1.47421581e+03
1.24631021e+03
8.20037889e+02
0.00000000e+00
0.00000000e+00
1.51835440e+03
1.70178095e+03
1.82701463e+03
1.80529269e+03
0.00000000e+00
1.60217890e+03
1.12490671e+03
1.30869048e+03
1.24497493e+03
1.34686524e+03
1.57469561e+03
1.56241459e+03
1.47254693e+03
1.60016253e+03
0.00000000e+00
1.68708800e+03
1.32987193e+03
1.44094445e+03
1.24141884e+03
0.00000000e+00
7.98374216e+02
1.49192438e+03
1.56325895e+03
1.76389601e+03
1.95757753e+03
1.49297770e+03
1.48174088e+03
1.34553789e+03
1.68128304e+03
9.48190645e+02
1.54990244e+03
1.50483533e+03
1.47679972e+03
1.49936872e+03
2.29922502e+03
1.44970812e+03
2.39777205e+03
1.40070058e+03
1.63654175e+03
1.08368029e+03
0.00000000e+00
1.00142551e+03
1.12612444e+03
1.47458293e+03
1.58542919e+03
1.76507830e+03
1.60079169e+03
1.43373132e+03
1.09708862e+03
1.49833434e+03
1.28181065e+03
1.35241201e+03
1.33382462e+03
1.95496735e+03
1.65697206e+03
1.58427662e+03
1.50812128e+03
1.50550593e+03
1.48273881e+03
1.32041389e+03
1.11554384e+03
0.00000000e+00
9.08359199e+02
1.37932798e+03
1.01009193e+03
1.69749059e+03
1.56929168e+03
1.64016528e+03
1.69100778e+03
0.00000000e+00
0.00000000e+00
0.00000000e+00
0.00000000e+00
0.00000000e+00
1.24847376e+03
1.37034605e+03
1.28170859e+03
1.45657754e+03
1.38644941e+03
1.11345113e+03
1.00382860e+03
1.43679357e+03
0.00000000e+00
0.00000000e+00
1.80087940e+03
1.04074728e+03
1.51308350e+03
1.62583575e+03
1.50654258e+03
1.61731750e+03
1.34190621e+03
1.36661332e+03
1.10230983e+03
1.74895437e+03
1.38309078e+03
1.78469257e+03
1.16978718e+03
1.15273498e+03
1.21347075e+03
1.13354147e+03
1.36674239e+03
1.31518749e+03
1.96251156e+03
0.00000000e+00
0.00000000e+00
1.10071375e+03
1.47744667e+03
1.50875166e+03
1.81821820e+03
1.70884938e+03
0.00000000e+00
0.00000000e+00
0.00000000e+00
0.00000000e+00
1.23576719e+03
9.79870513e+02
1.36279751e+03
1.56802528e+03
1.47692014e+03
1.54712056e+03
1.28630198e+03
1.47672768e+03
1.28590996e+03
0.00000000e+00
0.00000000e+00
0.00000000e+00
0.00000000e+00
7.87705154e+02
8.66619586e+02
1.24339276e+03
9.01522381e+02
1.39503345e+03
1.74099493e+03
1.35091490e+03
1.02607559e+03
7.94931132e+02
1.26554678e+03
9.66377019e+02
0.00000000e+00
9.00725054e+02
6.41685021e+02
9.75768194e+02
9.32468416e+02
0.00000000e+00
0.00000000e+00
0.00000000e+00
0.00000000e+00
1.29934748e+03
1.24766105e+03
1.16062689e+03
1.23848363e+03
1.30305751e+03
1.16003896e+03
8.80105627e+02
1.98939205e+03
1.41115105e+03
1.09988623e+03
1.26910461e+03
7.98607381e+02
0.00000000e+00
8.49507503e+02
1.47509005e+03
2.33175154e+03
1.80907222e+03
1.33875779e+03
6.13963507e+02
3.46647959e+02
0.00000000e+00
1.14349602e+03
1.80222234e+03
2.17152393e+03
2.33387619e+03
1.74733595e+03
2.21173821e+03
1.05702585e+03
1.76973273e+03
1.18048923e+03
8.99880502e+02
1.31192962e+03
1.23870075e+03
1.36700736e+03
1.31435114e+03
2.31325488e+03
1.00752659e+03
8.50401597e+02
6.88120579e+02
1.11200694e+03
0.00000000e+00
0.00000000e+00
1.11408899e+03
1.71215031e+03
1.05960002e+03
1.86420840e+03
1.44057358e+03
1.74524308e+03
1.58420092e+03
1.25649307e+03
8.05850408e+02
8.40986295e+02
1.49244241e+03
1.48903742e+03
8.42935395e+02
1.15869134e+03
7.65690870e+02
1.08580447e+03
1.85212648e+03
8.47373106e+02
1.51083682e+03
0.00000000e+00
0.00000000e+00
1.47480030e+03
1.28632933e+03
1.03343333e+03
1.52228347e+03
2.04025209e+03
1.68029730e+03
1.23026089e+03
1.37114511e+03
1.91689927e+03
5.61273159e+02
5.78896306e+02
1.00062670e+03
1.36758984e+03
1.11100530e+03
1.26122036e+03
1.08553395e+03
8.50529833e+02
2.16456831e+03
1.45646731e+03
3.78654332e+02
1.12513884e+03
1.50851613e+03
1.39943951e+03
1.53234348e+03
2.06436791e+03
1.68453686e+03
1.68013489e+03
1.64949327e+03
1.08128112e+03
1.41202437e+03
6.33702126e+02
2.12303965e+03
1.17198736e+03
7.63235015e+02
1.42063024e+03
1.43855926e+03
1.31850225e+03
1.26868074e+03
1.08647348e+03
8.98414717e+02
0.00000000e+00
1.25544188e+03
1.49598947e+03
2.23580157e+03
1.23189723e+03
1.65362145e+03
1.86048252e+03
1.41261058e+03
1.69488236e+03
1.37851489e+03
2.11246143e+03
1.90352826e+03
6.62954924e+02
1.14760276e+03
1.24440350e+03
1.81199345e+03
2.24325305e+03
1.52189492e+03
2.27214448e+03
1.18731563e+03
8.63018841e+02
0.00000000e+00
7.75451582e+02
8.82555091e+02
2.19830411e+03
1.89959338e+03
1.90307457e+03
1.61590382e+03
1.29106394e+03
1.16116523e+03
1.46186527e+03
1.46441906e+03
2.05209692e+03
2.00136504e+03
1.68704987e+03
2.09161566e+03
2.21534163e+03
1.45979036e+03
2.02605288e+03
2.33529545e+03
2.17381614e+03
8.66928355e+02
7.88760907e+02
9.91671050e+02
0.00000000e+00
1.06303358e+03
1.54725929e+03
1.78195063e+03
1.07404476e+03
2.24529123e+03
1.48412603e+03
1.87796529e+03
1.97192755e+03
2.00511631e+03
1.23823961e+03
1.11034440e+03
1.37252764e+03
2.25606532e+03
7.68554044e+02
2.37806918e+03
1.83763611e+03
1.29026210e+03
1.10220193e+03
0.00000000e+00
1.39369859e+03
0.00000000e+00
1.88347254e+03
1.48119300e+03
2.25044018e+03
2.31367154e+03
2.04765986e+03
1.04634071e+03
1.06141266e+03
1.57280714e+03
1.21680845e+03
1.74719901e+03
1.24819232e+03
8.19456122e+02
1.53646277e+03
0.00000000e+00
1.46887617e+03
9.71643514e+02
1.19518380e+03
9.65770969e+02
9.39148445e+02
9.60978172e+02
0.00000000e+00
1.59489497e+03
1.55701222e+03
1.75653205e+03
2.00025515e+03
1.50831893e+03
1.54060452e+03
2.42768021e+03
2.13080654e+03
1.34158237e+03
2.27402075e+03
6.46875538e+02
2.24922956e+03
1.67689155e+03
2.06375611e+03
1.14306417e+03
1.13141430e+03
8.81645737e+02
1.11133777e+03
9.39797815e+02
9.51262120e+02
0.00000000e+00
2.34802014e+03
1.67414368e+03
1.70976646e+03
1.22928831e+03
1.48142427e+03
1.26722158e+03
2.28660056e+03
1.45865099e+03
1.95175478e+03
1.44512957e+03
8.47729270e+02
1.99399666e+03
1.54869369e+03
1.48068702e+03
9.22234978e+02
1.49453936e+03
2.33159674e+03
1.09353879e+03
0.00000000e+00
1.09218364e+03
1.09020851e+03
2.35518196e+03
1.69173622e+03
1.82934681e+03
1.16700345e+03
2.13455629e+03
2.10655786e+03
1.68733807e+03
2.07272780e+03
1.55060486e+03
1.99695531e+03
6.59107141e+02
2.04280641e+03
1.13673486e+03
2.36159263e+03
2.37382721e+03
1.41523493e+03
2.43255490e+03
0.00000000e+00
7.32748469e+02
9.64812445e+02
0.00000000e+00
2.39353930e+03
1.72267110e+03
2.42942945e+03
1.52206038e+03
1.42357019e+03
1.24724639e+03
1.48678555e+03
1.72433728e+03
0.00000000e+00
2.32744851e+03
2.31372196e+03
2.09627935e+03
1.58278987e+03
1.58266536e+03
2.19668076e+03
1.65935998e+03
1.33589545e+03
0.00000000e+00
0.00000000e+00
6.78347952e+02
1.76538450e+03
1.80661354e+03
1.59889201e+03
2.02528467e+03
1.78528614e+03
1.44860841e+03
1.64382297e+03
1.97423334e+03
1.71874676e+03
1.46510079e+03
1.85596939e+03
1.64255110e+03
1.61121786e+03
2.02571222e+03
2.19303613e+03
8.30409589e+02
1.68352320e+03
1.96805520e+03
9.70042286e+02
5.64384890e+02
0.00000000e+00
1.41414547e+03
2.09606585e+03
1.66515977e+03
1.85772601e+03
2.47866852e+03
2.16852729e+03
1.38166909e+03
2.37879256e+03
1.71078443e+03
6.08669296e+02
2.07383726e+03
2.45293344e+03
1.50134686e+03
1.75539596e+03
2.37954412e+03
2.41416196e+03
1.61400465e+03
1.48792671e+03
1.14375738e+03
0.00000000e+00
7.98521603e+02
1.83711749e+03
1.21326017e+03
2.31978940e+03
2.29687879e+03
1.76789640e+03
1.17264615e+03
1.31413890e+03
1.68303796e+03
2.21943554e+03
1.41423106e+03
1.50730767e+03
1.22361050e+03
1.46950789e+03
2.50277975e+03
9.95353446e+02
2.43248525e+03
2.03495936e+03
2.46327547e+03
1.45452078e+03
0.00000000e+00
8.29841440e+02
1.09623905e+03
1.44591111e+03
1.61596195e+03
2.17135095e+03
2.07334186e+03
2.07287465e+03
1.76933308e+03
1.49104217e+03
1.10354972e+03
1.04212148e+03
1.32176682e+03
1.44037106e+03
1.40910100e+03
1.47404136e+03
2.12518107e+03
1.95255195e+03
1.70137408e+03
1.66949260e+03
1.27298997e+03
0.00000000e+00
7.03082549e+02
1.17259154e+03
1.82567650e+03
1.71595985e+03
1.56655418e+03
2.47219699e+03
1.48215609e+03
1.97051325e+03
2.10890566e+03
2.30978771e+03
2.33780900e+03
2.41621900e+03
2.13904854e+03
1.56798107e+03
1.55287059e+03
1.78631711e+03
2.05861861e+03
2.30972419e+03
2.31507127e+03
1.26727705e+03
0.00000000e+00
0.00000000e+00
1.21372346e+03
1.38969455e+03
1.76783662e+03
2.00928931e+03
1.78916549e+03
1.56854107e+03
0.00000000e+00
0.00000000e+00
0.00000000e+00
0.00000000e+00
0.00000000e+00
1.05318547e+03
1.00620516e+03
1.35475156e+03
1.29554046e+03
1.49193828e+03
1.10623557e+03
1.69566984e+03
1.04343607e+03
0.00000000e+00
0.00000000e+00
0.00000000e+00
1.14589450e+03
1.15880715e+03
1.63518360e+03
0.00000000e+00
1.55374215e+03
0.00000000e+00
0.00000000e+00
1.26429860e+03
0.00000000e+00
9.13164686e+02
0.00000000e+00
1.41095469e+03
0.00000000e+00
1.37951512e+03
1.00151680e+03
0.00000000e+00
0.00000000e+00
0.00000000e+00
7.94973694e+02
0.00000000e+00
9.54132033e+02
8.69829887e+02
2.11300061e+03
1.35055605e+03
1.46017799e+03