# vtk DataFile Version 3.0
MPS 3D Simulation Step 5000
ASCII
DATASET UNSTRUCTURED_GRID
POINTS 20213 double
-1.09154312e-03 3.47925632e-04 -9.56401048e-04
-9.93465548e-04 2.12257994e-04 -9.90212227e-04
-8.85490606e-04 2.39435111e-04 -1.10612661e-03
-8.43402952e-04 2.89014146e-04 -1.16489711e-03
-7.56058395e-04 1.49432513e-04 -1.15136608e-03
-7.26247890e-04 3.58089110e-04 -1.25363392e-03
-5.70608103e-04 1.83716574e-04 -1.26853354e-03
-4.54955944e-04 2.52763367e-04 -1.34473530e-03
-3.16249387e-04 1.51145991e-04 -1.33369988e-03
-3.69145882e-04 7.46693539e-04 -1.17269633e-03
-1.18429593e-04 6.49397411e-04 -1.33869665e-03
-2.17805275e-04 6.03040332e-04 -1.33168407e-03
-6.52828511e-05 3.01478524e-04 -1.32749347e-03
9.27258731e-05 1.31195246e-04 -1.36895494e-03
2.25329429e-04 1.12551269e-04 -1.33078730e-03
5.61004255e-04 1.20894864e-04 -1.23207031e-03
4.31926225e-04 5.14261979e-04 -1.16285916e-03
6.46599660e-04 1.24482456e-04 -1.19069109e-03
7.76678848e-04 3.51530666e-04 -1.10437574e-03
9.64695420e-04 5.06031103e-04 -9.69688596e-04
1.05960569e-03 2.57564537e-04 -8.13381384e-04
-1.03149540e-03 2.89245173e-04 -9.92149869e-04
-9.61761025e-04 2.61096369e-04 -1.04655735e-03
-9.23607207e-04 3.10364818e-04 -1.10363869e-03
-7.97358940e-04 3.46782186e-04 -1.21421242e-03
-7.69693942e-04 5.29187976e-04 -1.24068341e-03
-8.28897017e-04 4.15509268e-04 -1.20220829e-03
-6.71587893e-04 4.06759173e-04 -1.29039322e-03
-4.67017377e-04 3.43624600e-04 -1.36391974e-03
-2.59150932e-04 1.88202016e-04 -1.37465561e-03
-1.95379954e-04 1.37190683e-04 -1.35796376e-03
4.96160707e-05 1.96915496e-04 -1.41321328e-03
1.71249660e-04 1.58817117e-04 -1.38077003e-03
2.98273576e-04 2.52810581e-04 -1.39691658e-03
3.73719449e-04 2.95866492e-04 -1.38950949e-03
3.74114334e-04 2.21692540e-04 -1.36561542e-03
4.81736802e-04 1.53062873e-04 -1.28848140e-03
5.52936941e-04 1.88232501e-04 -1.27874140e-03
5.80586705e-04 2.04964632e-04 -1.15143875e-03
6.32848227e-04 1.89947832e-04 -1.24165282e-03
7.93594903e-04 1.85006696e-04 -1.14489005e-03
9.59612995e-04 1.35576077e-04 -9.79276223e-04
-9.90597269e-04 3.40833751e-04 -1.05109196e-03
-9.47109664e-04 3.96886058e-04 -1.10368807e-03
-9.71040675e-04 5.77457262e-04 -1.09769130e-03
-7.66316687e-04 2.78031505e-04 -1.21444099e-03
-8.80160192e-04 3.57818263e-04 -1.15438390e-03
-7.54233932e-04 4.41426527e-04 -1.24535134e-03
-5.27774439e-04 2.97783583e-04 -1.32944071e-03
-5.95568535e-04 2.63478057e-04 -1.28973358e-03
-3.27235812e-04 3.28485353e-04 -1.40662696e-03
-1.94115265e-04 2.28938465e-04 -1.40529202e-03
-5.53901994e-05 3.98612828e-04 -1.45668024e-03
1.24073683e-04 2.15259479e-04 -1.41495282e-03
1.90994052e-04 3.72664289e-04 -1.44572561e-03
4.55772620e-04 2.95710871e-04 -1.36188851e-03
3.21501537e-04 1.68264222e-04 -1.35342913e-03
5.19937451e-04 3.41820232e-04 -1.35070523e-03
6.11363360e-04 2.54436009e-04 -1.28260741e-03
5.29811162e-04 2.59069656e-04 -1.31825291e-03
7.73311109e-04 2.50140009e-04 -1.19137807e-03
8.79061715e-04 1.94104073e-04 -1.08803939e-03
8.88060228e-04 1.30806763e-04 -1.03321216e-03
-1.11519631e-03 4.22309942e-04 -9.42504492e-04
-1.00533243e-03 4.38821131e-04 -1.05773877e-03
-9.61818689e-04 4.93152512e-04 -1.10271066e-03
-8.32949434e-04 4.91584794e-04 -1.20080781e-03
-6.91798820e-04 4.85179105e-04 -1.28355506e-03
-6.43350779e-04 3.28281884e-04 -1.29045708e-03
-5.80407560e-04 3.60325762e-04 -1.32541882e-03
-2.63889794e-04 2.79118809e-04 -1.40821967e-03
-1.97066154e-04 3.17341378e-04 -1.43050753e-03
-1.37447588e-04 1.76361228e-04 -1.39236988e-03
2.28793088e-05 4.37407840e-04 -1.46273073e-03
-1.43582610e-08 1.45396342e-04 -1.38609856e-03
7.27562530e-05 2.83679325e-04 -1.44125240e-03
1.56976377e-04 2.95902606e-04 -1.43605659e-03
3.21196731e-04 3.53823754e-04 -1.41588325e-03
4.52752496e-04 2.20971477e-04 -1.33581716e-03
5.63031640e-04 4.19685549e-04 -1.34400290e-03
8.27516878e-04 3.15992142e-04 -1.18765782e-03
8.51569762e-04 2.50632676e-04 -1.14227468e-03
9.27130223e-04 2.65941934e-04 -1.09094385e-03
1.00517338e-03 2.62642144e-04 -1.02202069e-03
-1.12741978e-03 5.05975794e-04 -9.36429156e-04
-9.08376893e-04 6.12100119e-04 -1.14370122e-03
-8.97824943e-04 4.46595218e-04 -1.15163413e-03
-7.01692132e-04 5.68532820e-04 -1.27863192e-03
-5.41351001e-04 4.88474540e-04 -1.35407146e-03
-6.06022379e-04 4.42619737e-04 -1.32320918e-03
-2.56875848e-04 3.76227671e-04 -1.42899022e-03
-1.77921141e-04 4.14250487e-04 -1.44182647e-03
-1.24957581e-04 3.48499368e-04 -1.44533825e-03
-2.89798857e-05 5.00592500e-04 -1.46358082e-03
5.84036005e-05 5.21576587e-04 -1.46330411e-03
-4.79484476e-05 3.12495133e-04 -1.44653842e-03
1.07489465e-04 4.53469630e-04 -1.46014563e-03
3.09011584e-04 4.89669931e-04 -1.42718504e-03
1.04444227e-04 3.71653785e-04 -1.45487728e-03
4.13541063e-04 3.66300358e-04 -1.39262807e-03
4.81515191e-04 4.06790996e-04 -1.37433153e-03
6.94215560e-04 2.48287393e-04 -1.23739359e-03
9.00763855e-04 3.30094323e-04 -1.13739896e-03
9.77375108e-04 3.28224150e-04 -1.07664215e-03
9.50134108e-04 3.97402311e-04 -1.11968264e-03
-1.13678447e-03 5.89719161e-04 -9.24433748e-04
-1.02466438e-03 5.29021946e-04 -1.05006443e-03
-8.44089952e-04 6.50501101e-04 -1.18424532e-03
-9.04460080e-04 5.31003984e-04 -1.14985394e-03
-6.25779215e-04 5.24090239e-04 -1.31791719e-03
-4.52171393e-04 4.39665167e-04 -1.38430932e-03
-3.98426625e-04 3.78311053e-04 -1.39356844e-03
-3.29242627e-04 4.22784577e-04 -1.41593347e-03
-1.08366538e-04 4.60441574e-04 -1.45407140e-03
-1.79907749e-04 5.08838961e-04 -1.44501252e-03
-1.02236792e-04 5.48558516e-04 -1.45482911e-03
2.34572475e-05 3.51655472e-04 -1.45424218e-03
2.67348288e-04 4.15030726e-04 -1.43357298e-03
3.63619548e-04 4.28441853e-04 -1.41275473e-03
2.08082839e-04 2.39009227e-04 -1.41114233e-03
3.71613909e-04 6.19815322e-04 -1.40356844e-03
4.31102668e-04 4.72133180e-04 -1.39309275e-03
5.92321068e-04 3.28009614e-04 -1.31639885e-03
7.48924083e-04 3.16606124e-04 -1.23430209e-03
8.74266267e-04 3.95834864e-04 -1.17821185e-03
1.04540366e-03 4.82755452e-04 -1.04447349e-03
-1.08234745e-03 5.56560605e-04 -9.90200385e-04
-1.06897346e-03 4.71870099e-04 -9.99006405e-04
-9.18406901e-04 6.92297239e-04 -1.12381375e-03
-7.73785822e-04 6.15494649e-04 -1.23146232e-03
-6.37604615e-04 6.09108985e-04 -1.31009236e-03
-4.72743494e-04 5.20956121e-04 -1.38197523e-03
-3.85755926e-04 4.84139563e-04 -1.40549380e-03
-2.50231422e-04 4.63578982e-04 -1.43277027e-03
-3.14629545e-04 5.19490504e-04 -1.42207261e-03
-2.46698257e-04 5.61831469e-04 -1.43234337e-03
-1.70990170e-05 5.81707764e-04 -1.46243482e-03
1.43344163e-04 5.40890237e-04 -1.45770950e-03
1.87575100e-04 4.55391649e-04 -1.45155001e-03
2.31484494e-04 5.19484557e-04 -1.44318245e-03
2.97348545e-04 5.79479039e-04 -1.42405186e-03
6.05455237e-04 4.86503552e-04 -1.33046513e-03
5.60862007e-04 5.53206445e-04 -1.34896470e-03
6.72029359e-04 3.20898371e-04 -1.27549111e-03
6.38019634e-04 3.96456181e-04 -1.30915348e-03
9.82512270e-04 4.74957878e-04 -1.10133365e-03
9.38878388e-04 5.36233907e-04 -1.13716889e-03
-1.14131735e-03 6.74901871e-04 -9.01884608e-04
-1.03694971e-03 6.11884468e-04 -1.03825769e-03
-9.82298454e-04 6.53246927e-04 -1.08424898e-03
-8.41918198e-04 5.71424138e-04 -1.19462900e-03
-5.58612961e-04 5.69456998e-04 -1.34758147e-03
-4.03511660e-04 5.66995851e-04 -1.40061344e-03
-4.11317761e-04 6.51550957e-04 -1.39273732e-03
-3.30172500e-04 6.06590445e-04 -1.41486188e-03
-2.57900615e-04 6.49415105e-04 -1.42483744e-03
-1.72335253e-04 6.03397231e-04 -1.44199943e-03
-9.80639781e-05 6.37260529e-04 -1.45102699e-03
6.47438594e-05 6.01559103e-04 -1.46383178e-03
1.43500454e-04 6.23955985e-04 -1.45260747e-03
2.19143166e-04 6.01007600e-04 -1.44030743e-03
3.00072903e-04 6.65809451e-04 -1.41360676e-03
5.09573245e-04 4.90565878e-04 -1.36669992e-03
4.59844913e-04 5.60028052e-04 -1.38272904e-03
6.48799106e-04 5.57862941e-04 -1.31461355e-03
7.18936991e-04 3.90648134e-04 -1.26770086e-03
9.10932792e-04 4.66715542e-04 -1.15996969e-03
8.92687274e-04 6.06737810e-04 -1.16395579e-03
-1.09130081e-03 6.41541714e-04 -9.75182364e-04
-1.04533341e-03 6.94552635e-04 -1.01833088e-03
-9.86036054e-04 7.30714239e-04 -1.06376615e-03
-6.43875030e-04 6.92577112e-04 -1.30165637e-03
-5.69544661e-04 6.52543576e-04 -1.33934632e-03
-4.86082324e-04 6.00932809e-04 -1.37513677e-03
-4.24646948e-04 7.31839190e-04 -1.37794705e-03
-3.40803656e-04 6.92435432e-04 -1.40454047e-03
-2.70035795e-04 7.34236904e-04 -1.41187900e-03
-1.84258965e-04 6.88864241e-04 -1.43298887e-03
-1.07181433e-04 7.19984018e-04 -1.44127189e-03
-1.57344337e-05 6.61257260e-04 -1.45852611e-03
6.52711258e-05 6.82667523e-04 -1.45513234e-03
1.39412721e-04 7.08307350e-04 -1.44126975e-03
2.17784621e-04 6.81842388e-04 -1.43055141e-03
4.44988822e-04 6.41840850e-04 -1.38206054e-03
4.30509235e-04 7.66340699e-04 -1.36134095e-03
5.22749492e-04 6.21963124e-04 -1.35844147e-03
6.80895044e-04 4.66128877e-04 -1.29478329e-03
7.97805340e-04 3.86011384e-04 -1.22563006e-03
8.64121169e-04 5.35689746e-04 -1.19383202e-03
-1.09650857e-03 7.25471821e-04 -9.48230375e-04
-9.79544661e-04 8.13455987e-04 -1.04303644e-03
-8.56903455e-04 7.32907565e-04 -1.16113722e-03
-7.11596650e-04 6.52611194e-04 -1.26908726e-03
-6.54362523e-04 7.76555850e-04 -1.28471535e-03
-4.94769593e-04 6.81213749e-04 -1.36442499e-03
-5.02476101e-04 7.64510381e-04 -1.34953239e-03
-3.50330152e-04 7.77572317e-04 -1.38727121e-03
-2.75435894e-04 8.18021665e-04 -1.39081223e-03
-1.98667205e-04 7.71439193e-04 -1.41611270e-03
-1.20644956e-04 7.97675788e-04 -1.42196142e-03
-2.83463084e-05 7.36428285e-04 -1.44498218e-03
4.68396895e-05 7.59986099e-04 -1.43874852e-03
1.24164424e-04 7.85692471e-04 -1.42345034e-03
2.13344817e-04 7.65215289e-04 -1.41229132e-03
3.79001782e-04 7.04622960e-04 -1.38710077e-03
5.17629885e-04 7.79922435e-04 -1.33018122e-03
4.82967828e-04 7.07370314e-04 -1.36103614e-03
7.20915529e-04 5.47029446e-04 -1.28064199e-03
8.32974000e-04 4.60755614e-04 -1.21458285e-03
8.63671151e-04 6.85404163e-04 -1.16860491e-03
-1.04222714e-03 7.73231897e-04 -9.97353167e-04
-9.81622152e-04 8.85184291e-04 -1.00529944e-03
[...]
POINT_DATA 20213
SCALARS pressure double 1
LOOKUP_TABLE default
8.49888088e+02
8.91771115e+02
0.00000000e+00
0.00000000e+00
0.00000000e+00
0.00000000e+00
7.17023243e+02
0.00000000e+00
0.00000000e+00
1.35174432e+03
8.55789023e+02
1.12433349e+03
1.03027098e+03
6.69724462e+02
6.18125998e+02
0.00000000e+00
1.04083050e+03
0.00000000e+00
6.31316398e+02
7.24908053e+02
5.82228115e+02
8.98869727e+02
0.00000000e+00
0.00000000e+00
0.00000000e+00
0.00000000e+00
0.00000000e+00
0.00000000e+00
1.05270832e+03
0.00000000e+00
0.00000000e+00
0.00000000e+00
6.93452295e+02
0.00000000e+00
0.00000000e+00
0.00000000e+00
0.00000000e+00
0.00000000e+00
7.25740228e+02
5.92425238e+02
0.00000000e+00
0.00000000e+00
0.00000000e+00
0.00000000e+00
4.18120333e+02
0.00000000e+00
0.00000000e+00
0.00000000e+00
0.00000000e+00
8.61874741e+02
0.00000000e+00
6.94526763e+02
0.00000000e+00
0.00000000e+00
0.00000000e+00
6.95959762e+02
6.07191520e+02
8.30331349e+02
0.00000000e+00
7.24522035e+02
0.00000000e+00
0.00000000e+00
4.62085942e+02
6.95775153e+02
0.00000000e+00
0.00000000e+00
0.00000000e+00
1.00235836e+03
1.00098695e+03
1.14180227e+03
0.00000000e+00
0.00000000e+00
6.49153733e+02
0.00000000e+00
0.00000000e+00
0.00000000e+00
0.00000000e+00
8.21235725e+02
0.00000000e+00
7.69510452e+02
0.00000000e+00
0.00000000e+00
0.00000000e+00
0.00000000e+00
0.00000000e+00
0.00000000e+00
0.00000000e+00
9.96513384e+02
1.31681004e+03
1.20892536e+03
8.00297277e+02
8.81177643e+02
0.00000000e+00
0.00000000e+00
6.62312160e+02
0.00000000e+00
7.62225515e+02
0.00000000e+00
0.00000000e+00
0.00000000e+00
7.57732101e+02
7.87609741e+02
0.00000000e+00
0.00000000e+00
0.00000000e+00
0.00000000e+00
4.95237874e+02
5.20616804e+02
0.00000000e+00
1.29321531e+03
0.00000000e+00
9.98736066e+02
9.77754286e+02
0.00000000e+00
0.00000000e+00
6.87896250e+02
8.47594592e+02
0.00000000e+00
0.00000000e+00
0.00000000e+00
0.00000000e+00
0.00000000e+00
8.49620695e+02
0.00000000e+00
0.00000000e+00
0.00000000e+00
5.72864815e+02
0.00000000e+00
0.00000000e+00
6.49433644e+02
1.22271194e+03
1.29201499e+03
1.22701245e+03
9.68821665e+02
1.20720693e+03
1.04869783e+03
0.00000000e+00
0.00000000e+00
0.00000000e+00
0.00000000e+00
0.00000000e+00
0.00000000e+00
0.00000000e+00
8.75675079e+02
8.08579046e+02
0.00000000e+00
0.00000000e+00
0.00000000e+00
0.00000000e+00
0.00000000e+00
0.00000000e+00
1.32950045e+03
1.35110825e+03
1.33505218e+03
1.28561531e+03
0.00000000e+00
8.18021850e+02
0.00000000e+00
0.00000000e+00
0.00000000e+00
3.95443261e+02
0.00000000e+00
7.24062237e+02
6.58803607e+02
0.00000000e+00
8.19672621e+02
0.00000000e+00
0.00000000e+00
0.00000000e+00
0.00000000e+00
0.00000000e+00
1.06941773e+03
1.22456167e+03
1.32487742e+03
1.34939920e+03
1.27556895e+03
1.11049547e+03
0.00000000e+00
0.00000000e+00
0.00000000e+00
0.00000000e+00
0.00000000e+00
0.00000000e+00
0.00000000e+00
0.00000000e+00
0.00000000e+00
6.86119204e+02
0.00000000e+00
0.00000000e+00
0.00000000e+00
0.00000000e+00
0.00000000e+00
0.00000000e+00
9.13023050e+02
0.00000000e+00
1.17523207e+03
1.31764352e+03
1.25334531e+03
9.17682247e+02
0.00000000e+00
0.00000000e+00
0.00000000e+00
0.00000000e+00
0.00000000e+00
0.00000000e+00
8.02107562e+02
0.00000000e+00
0.00000000e+00
0.00000000e+00
8.34213522e+02
0.00000000e+00
0.00000000e+00
0.00000000e+00
0.00000000e+00
0.00000000e+00
9.70244260e+02
1.36068198e+03
1.30393680e+03
1.15412301e+03
9.97426099e+02
9.73488049e+02
6.59715473e+02
0.00000000e+00
0.00000000e+00
0.00000000e+00
0.00000000e+00
0.00000000e+00
0.00000000e+00
9.01140174e+02
0.00000000e+00
0.00000000e+00
6.43164372e+02
0.00000000e+00
4.70198958e+02
0.00000000e+00
7.50994607e+02
9.68604658e+02
0.00000000e+00
1.14373004e+03
1.08896367e+03
8.54639542e+02
0.00000000e+00
0.00000000e+00
0.00000000e+00
0.00000000e+00
4.45266023e+02
6.75702664e+02
1.07924872e+03
0.00000000e+00
1.13305913e+03
9.47839536e+02
1.04816051e+03
0.00000000e+00
0.00000000e+00
0.00000000e+00
0.00000000e+00
6.48962808e+02
0.00000000e+00
9.46893925e+02
8.41806103e+02
0.00000000e+00
0.00000000e+00
0.00000000e+00
0.00000000e+00
0.00000000e+00
0.00000000e+00
5.40509287e+02
8.62617285e+02
8.65440325e+02
1.00922394e+03
0.00000000e+00
1.08452470e+03
1.07531419e+03
0.00000000e+00
0.00000000e+00
0.00000000e+00
0.00000000e+00
0.00000000e+00
0.00000000e+00
0.00000000e+00
0.00000000e+00
8.61558083e+02
7.70658758e+02
5.43192736e+02
0.00000000e+00
5.68886693e+02
0.00000000e+00
0.00000000e+00
0.00000000e+00
0.00000000e+00
9.78034634e+02
9.39674137e+02
1.03608816e+03
0.00000000e+00
0.00000000e+00
0.00000000e+00
0.00000000e+00
0.00000000e+00
0.00000000e+00
0.00000000e+00
0.00000000e+00
0.00000000e+00
0.00000000e+00
6.64274596e+02
6.95835590e+02
8.85582469e+02
0.00000000e+00
5.88000455e+02
0.00000000e+00
0.00000000e+00
7.12053489e+02
0.00000000e+00
0.00000000e+00
1.12967033e+03
0.00000000e+00
0.00000000e+00
0.00000000e+00
0.00000000e+00
0.00000000e+00
0.00000000e+00
0.00000000e+00
0.00000000e+00
0.00000000e+00
0.00000000e+00
0.00000000e+00
0.00000000e+00
7.04273850e+02
7.42808221e+02
6.74928215e+02
0.00000000e+00
0.00000000e+00
0.00000000e+00
0.00000000e+00
8.77796952e+02
1.08130787e+03
0.00000000e+00
0.00000000e+00
0.00000000e+00
0.00000000e+00
0.00000000e+00
0.00000000e+00
4.76054919e+02
0.00000000e+00
0.00000000e+00
0.00000000e+00
9.56288862e+02
8.41052808e+02
9.56403984e+02
0.00000000e+00
0.00000000e+00
0.00000000e+00
0.00000000e+00
0.00000000e+00
0.00000000e+00
0.00000000e+00
0.00000000e+00
0.00000000e+00
0.00000000e+00
0.00000000e+00
7.16350758e+02
0.00000000e+00
0.00000000e+00
9.94428536e+02
7.93300905e+02
0.00000000e+00
0.00000000e+00
0.00000000e+00
9.83157262e+02
9.49778445e+02
9.11413886e+02
0.00000000e+00
6.57439616e+02
6.85690936e+02
0.00000000e+00
0.00000000e+00
5.76765427e+02
0.00000000e+00
8.41615391e+02
0.00000000e+00
0.00000000e+00
0.00000000e+00
8.96368761e+02
0.00000000e+00
1.04828772e+03
7.65864437e+02
1.00728279e+03
9.33102264e+02
7.62521990e+02
9.12578022e+02
9.80067429e+02
8.57649718e+02
8.30335890e+02
7.45203934e+02
0.00000000e+00
0.00000000e+00
7.10913360e+02
0.00000000e+00
0.00000000e+00
0.00000000e+00
6.40397824e+02
0.00000000e+00
7.58442188e+02
9.23874719e+02
0.00000000e+00
1.00301000e+03
8.57362493e+02
8.72467248e+02
0.00000000e+00
9.35986633e+02
0.00000000e+00
0.00000000e+00
0.00000000e+00
7.25780591e+02
0.00000000e+00
8.48540371e+02
7.72974115e+02
8.60351284e+02
0.00000000e+00
0.00000000e+00
0.00000000e+00
8.72302132e+02
9.66974534e+02
0.00000000e+00
0.00000000e+00
0.00000000e+00
1.09443061e+03
0.00000000e+00
0.00000000e+00
8.90457496e+02
7.91249338e+02
8.56942313e+02
6.71691290e+02
0.00000000e+00
0.00000000e+00
0.00000000e+00
0.00000000e+00
1.00947179e+03
9.67205869e+02
0.00000000e+00
0.00000000e+00
0.00000000e+00
8.09798675e+02
1.00305216e+03
8.85197774e+02
0.00000000e+00
0.00000000e+00
0.00000000e+00
6.68153929e+02
0.00000000e+00
0.00000000e+00
1.21138988e+03
1.46273483e+03
1.24178612e+03
9.87357918e+02
9.50394025e+02
6.68314327e+02
1.25657851e+03
0.00000000e+00
1.20762099e+03
1.17939105e+03
0.00000000e+00
4.66902084e+02
9.11166174e+02
1.23214497e+03
4.33887038e+02
1.80747641e+03
4.50261977e+02
1.13850215e+03
1.05209035e+03
1.21861347e+03
1.27180797e+03
1.45018187e+03
2.04446141e+03
1.97775239e+03
5.98118082e+02
2.04353170e+03
1.70257567e+03
1.11174615e+03
9.99423615e+02
1.13526833e+03
1.22601195e+03
1.21282270e+03
0.00000000e+00
0.00000000e+00
7.41660691e+02
7.97089674e+02
1.35550170e+03
0.00000000e+00
1.58247448e+03
1.58821447e+03
0.00000000e+00
0.00000000e+00
5.32519961e+02
8.17497494e+02
0.00000000e+00
7.77841419e+02
0.00000000e+00
1.94699688e+03
6.40467481e+02
7.89943296e+02
1.13852093e+03
1.18792448e+03
1.16832674e+03
0.00000000e+00
0.00000000e+00
5.27269090e+02
2.08865110e+03
1.24196130e+03
0.00000000e+00
2.16067937e+03
6.37364599e+02
1.16120615e+03
7.33751642e+02
1.68784789e+03
9.44647819e+02
1.26351078e+03
1.12312213e+03
1.31242901e+03
9.57321673e+02
6.81139974e+02
1.28191443e+03
1.34687421e+03
1.22535323e+03
1.26861155e+03
0.00000000e+00
6.50155575e+02
8.45591077e+02
1.04513379e+03
1.30235979e+03
2.11680784e+03
1.58627703e+03
9.66285190e+02
9.56961099e+02
8.87188718e+02
1.44462306e+03
1.69436431e+03
2.13056585e+03
9.57491129e+02
1.78092329e+03
7.99940354e+02
1.74499049e+03
9.98241563e+02
1.00352913e+03
1.30151486e+03
1.05753063e+03
0.00000000e+00
0.00000000e+00
2.28795156e+03
3.50774402e+02
4.46361725e+02
2.04389393e+03
1.23835123e+03
1.79624785e+03
1.25860958e+03
8.45957674e+02
9.16321184e+02
1.93522111e+03
8.84324441e+02
1.31643218e+03
1.09877789e+03
9.86573078e+02
5.68811589e+02
9.96096633e+02
1.04658427e+03
1.04549771e+03
1.19265394e+03
5.46979297e+02
0.00000000e+00
1.49222697e+03
8.43867148e+02
1.00132053e+03
1.35673600e+03
5.30295151e+02
1.53810126e+03
1.16719387e+03
7.49477587e+02
2.10239734e+03
9.98419252e+02
1.37555274e+03
2.13244920e+03
1.11784132e+03
7.53701251e+02
1.22990543e+03
1.12127578e+03
8.79724967e+02
8.13106094e+02
1.08683435e+03
0.00000000e+00
0.00000000e+00
4.46003548e+02
0.00000000e+00
1.04563865e+03
1.21455645e+03
1.59785607e+03
9.25815184e+02
1.72270489e+03
1.72494742e+03
1.30472081e+03
1.24395853e+03
1.17917822e+03
2.04278147e+03
1.10492566e+03
1.48888557e+03
1.56971514e+03
9.41869977e+02
8.62447854e+02
0.00000000e+00
1.03137274e+03
0.00000000e+00
0.00000000e+00
1.74824362e+03
0.00000000e+00
0.00000000e+00
2.08604636e+03
1.31549408e+03
9.86628954e+02
1.66472891e+03
1.46983358e+03
8.79617684e+02
1.22303521e+03
2.09969330e+03
2.05524188e+03
1.04733718e+03
7.53520978e+02
6.89340668e+02
1.87537125e+03
1.90484706e+03
0.00000000e+00
1.13373727e+03
0.00000000e+00
0.00000000e+00
2.02760762e+03
0.00000000e+00
6.55391700e+02
8.59323717e+02
6.98427413e+02
8.25698958e+02
9.68889878e+02
1.42181816e+03
1.08734893e+03
1.07898026e+03
1.12692344e+03
1.97662371e+03
1.03177486e+03
8.14494521e+02
9.14670655e+02
8.20372573e+02
1.10625120e+03
0.00000000e+00
9.32487828e+02
0.00000000e+00
6.74584861e+02
1.45296039e+03
5.57097566e+02
1.14083898e+03
6.57889599e+02
9.90020722e+02
8.84950915e+02
1.09135797e+03
1.13763459e+03
1.46768192e+03
1.20158306e+03
1.68315431e+03
1.08918421e+03
1.67408108e+03
9.06166860e+02
7.73798998e+02
1.48355854e+03
2.08009190e+03
0.00000000e+00
1.32703703e+03
0.00000000e+00
0.00000000e+00
8.53895256e+02
0.00000000e+00
7.87238916e+02
5.45148749e+02
9.28082444e+02
9.11654321e+02
1.03451609e+03
2.10981273e+03
1.29050148e+03
1.95168099e+03
1.35029597e+03
1.38697315e+03
1.05166351e+03
1.37273595e+03
9.07036630e+02
9.65078572e+02
9.46545636e+02
1.11966442e+03
1.13614155e+03
1.04471591e+03
0.00000000e+00
1.43167667e+03
0.00000000e+00
1.30445955e+03
1.70383018e+03
7.83639281e+02
1.15102126e+03
1.67527735e+03
2.13492394e+03
1.16536495e+03
1.26151372e+03
1.87973795e+03
1.58823679e+03
2.08367136e+03
9.43985792e+02
1.24978168e+03
1.17920532e+03
1.90636140e+03
1.02487726e+03
1.48988687e+03
1.02895601e+03
0.00000000e+00
6.82714498e+02
0.00000000e+00
1.30979738e+03
9.29897054e+02
1.07849058e+03
1.21518732e+03
1.17366102e+03
1.59879081e+03
1.00486356e+03
1.15597686e+03
1.03452510e+03
1.17583786e+03
1.08119077e+03
9.82398297e+02
1.22350068e+03
1.06700049e+03
1.34143646e+03
1.12544554e+03
8.85965713e+02
0.00000000e+00
0.00000000e+00
9.79136380e+02
1.20363337e+03
1.14570162e+03
1.32968847e+03
1.23925268e+03
1.49060244e+03
2.01078546e+03
1.32291880e+03
9.71602092e+02
1.62969483e+03
1.01079318e+03
1.10720967e+03
1.09228810e+03
1.19387465e+03
1.33519145e+03
1.80446441e+03
1.16056252e+03
1.33498190e+03
9.45074429e+02
0.00000000e+00
0.00000000e+00
1.23167529e+03
1.25119666e+03
1.07782136e+03
1.14871166e+03
0.00000000e+00
1.24970967e+03
9.60318152e+02
1.00137041e+03
1.16520728e+03
1.12631653e+03
1.43346855e+03
1.14741333e+03
9.75978189e+02
9.35916172e+02
0.00000000e+00
1.60126008e+03
1.45197632e+03
1.39731832e+03
1.11660572e+03
0.00000000e+00
0.00000000e+00
1.41133979e+03
1.37162044e+03
1.18456432e+03
2.05848698e+03
1.06343448e+03
1.11402050e+03
1.07584620e+03
1.40572592e+03
9.85606280e+02
7.94596141e+02
8.07675774e+02
1.28975050e+03
1.09198938e+03
2.05706449e+03
1.15801265e+03
2.15335125e+03
1.35427177e+03
1.64500747e+03
1.52367795e+03
0.00000000e+00
0.00000000e+00
1.28284301e+03
1.31847810e+03
1.30937597e+03
1.10060331e+03
1.43234615e+03
1.13656465e+03
9.26479076e+02
1.32435364e+03
8.78573389e+02
1.11446838e+03
7.22448860e+02
1.99982077e+03
1.70605115e+03
1.13420573e+03
1.17158370e+03
1.30674492e+03
1.39681145e+03
1.31440369e+03
1.50268215e+03
0.00000000e+00
0.00000000e+00
1.33645759e+03
1.34063133e+03
1.21171200e+03
1.27286295e+03
1.20237711e+03
9.63771605e+02
0.00000000e+00
8.72364389e+02
0.00000000e+00
1.02159660e+03
9.99120469e+02
9.76548416e+02
0.00000000e+00
1.33354860e+03
1.21683884e+03
1.50790635e+03
1.52482000e+03
1.66368923e+03
1.45032394e+03
0.00000000e+00
0.00000000e+00
1.56144418e+03
1.22171557e+03
1.36301441e+03
1.11845796e+03
1.22350301e+03
1.05770902e+03
8.27043811e+02
1.19214177e+03
8.47202642e+02
1.36376410e+03
1.06890861e+03
1.71018883e+03
8.01058841e+02
9.65047887e+02
1.18883166e+03
1.40009738e+03
1.43724242e+03
1.59214379e+03
1.79463883e+03
0.00000000e+00
7.98902237e+02
1.06927845e+03
1.05179010e+03
1.17127085e+03
1.04545261e+03
8.94604326e+02
9.18336887e+02
0.00000000e+00
0.00000000e+00
7.54640478e+02
0.00000000e+00
7.83956058e+02
0.00000000e+00
0.00000000e+00
0.00000000e+00
1.04519288e+03
0.00000000e+00
1.19350089e+03
1.21494366e+03
0.00000000e+00
1.06208012e+03
0.00000000e+00
0.00000000e+00
9.58193742e+02
0.00000000e+00
3.92850246e+02
5.52794275e+02
6.34459211e+02
0.00000000e+00
7.68445727e+02
5.77208032e+02
7.99722366e+02
1.34955176e+03
6.64016165e+02
6.04548431e+02
1.08547281e+03
4.54720304e+02
1.17410255e+03
1.07437067e+03
0.00000000e+00
0.00000000e+00
8.73665018e+02
7.53186979e+02
7.86220818e+02
9.75582486e+02
7.30501349e+02
8.44389544e+02
3.57508774e+02
8.69704030e+02
1.04109383e+03
1.69518822e+03
0.00000000e+00
9.91874744e+02
1.02332490e+03
1.21735147e+03
7.64499994e+02
7.90510798e+02
1.17980346e+03
1.80294219e+03
1.20281049e+03
1.20124337e+03
1.02090952e+03
0.00000000e+00
0.00000000e+00
9.62324670e+02
2.16748701e+03
1.87904609e+03
2.28003153e+03
9.55592439e+02
2.01820165e+03
1.02505264e+03
1.99890237e+03
9.98417618e+02
9.27591764e+02
1.99533900e+03
2.04043414e+03
1.23731156e+03
1.26605178e+03
1.54134099e+03
1.68191337e+03
7.70221803e+02
8.42642618e+02
1.25095164e+03
0.00000000e+00
6.75125688e+02
4.22107851e+02
9.16576822e+02
8.60456812e+02
1.04711342e+03
6.49951244e+02
1.21870501e+03
9.35276184e+02
1.77418485e+03
9.69058907e+02
1.07331680e+03
1.41723580e+03
1.24508835e+03
1.19807710e+03
1.01725374e+03
7.07756536e+02
1.72517948e+03
1.39804286e+03
8.53740959e+02
1.95148342e+03
0.00000000e+00
0.00000000e+00
1.12021121e+03
1.82953044e+03
7.59863036e+02
1.55380650e+03
2.07323716e+03
9.08904837e+02
1.33169333e+03
7.28165947e+02
1.35249038e+03
1.15339138e+03
1.01546272e+03
9.12814860e+02
1.34568398e+03
1.92512302e+03
9.95950570e+02
9.67927528e+02
1.12685198e+03
1.55610621e+03
1.41041233e+03
0.00000000e+00
8.18109553e+02
1.38584561e+03
2.00191362e+03
1.32258028e+03
2.01166296e+03
1.70182620e+03
1.10276174e+03
1.18729906e+03
9.70059201e+02
9.06367787e+02
7.68179030e+02
1.85548605e+03
1.84259640e+03
7.23044362e+02
1.21304182e+03
1.95814938e+03
1.42140531e+03
2.03449965e+03
1.57829559e+03
7.03338334e+02
0.00000000e+00
8.07399146e+02
1.35587271e+03
2.27823972e+03
7.12475510e+02
1.94688584e+03
1.00584171e+03
1.24196203e+03
1.41648543e+03
1.67191619e+03
1.83550638e+03
1.43522614e+03
7.89970452e+02
1.46696755e+03
7.56140134e+02
1.53762890e+03
2.15163071e+03
1.55371887e+03
1.69718635e+03
1.81095558e+03
1.15276745e+03
0.00000000e+00
6.20706130e+02
0.00000000e+00
2.15768544e+03
1.85770742e+03
1.77489862e+03
1.56733534e+03
6.65356169e+02
1.28045380e+03
8.02272721e+02
1.20572433e+03
1.81309363e+03
1.54187895e+03
1.20701270e+03
1.94281691e+03
1.93562682e+03
1.05611299e+03
1.78150259e+03
1.96142996e+03
1.65942291e+03
0.00000000e+00
0.00000000e+00
0.00000000e+00
0.00000000e+00
1.23343396e+03
9.68940427e+02
2.02631866e+03
9.76688072e+02
2.15691601e+03
8.37088632e+02
1.57044430e+03
1.67141373e+03
1.74178014e+03
1.08587915e+03
1.88589647e+03
2.12155174e+03
2.08869368e+03
7.54597345e+02
2.15040881e+03
1.44448519e+03
1.94563816e+03
0.00000000e+00
0.00000000e+00
0.00000000e+00
0.00000000e+00
1.96344989e+03
4.07193851e+02
2.20867177e+03
2.24299232e+03
1.80300225e+03
1.17515823e+03
7.25432148e+02
1.57341406e+03
8.28152714e+02
1.97209719e+03
1.27843238e+03
9.07494814e+02
1.35614919e+03
1.86052802e+03
1.31308776e+03
1.17351448e+03
1.99603032e+03
0.00000000e+00
0.00000000e+00
9.73193201e+02
0.00000000e+00
1.41083627e+03
6.24109573e+02
1.71935808e+03
1.56472278e+03
1.27159181e+03
1.14776742e+03
2.18329524e+03
2.12541928e+03
1.24339097e+03
2.12895783e+03
4.13639442e+02
1.98949425e+03
1.58008331e+03
1.28100359e+03
8.96255281e+02
1.23881115e+03
1.40633593e+03
0.00000000e+00
8.85404249e+02
1.08922240e+03
0.00000000e+00
2.27300166e+03
9.53904132e+02
1.69225352e+03
1.40870833e+03
1.24574942e+03
5.84657623e+02
2.15209258e+03
1.91296449e+03
1.50112710e+03
1.37107485e+03
6.82991757e+02
2.11225938e+03
1.14626719e+03
1.37212848e+03
1.15532166e+03
1.27661952e+03
2.02535527e+03
0.00000000e+00
9.00921472e+02
9.82707792e+02
9.09531630e+02
2.23926620e+03
1.06908239e+03
2.14862173e+03
1.83220076e+03
2.19109622e+03
1.93980414e+03
2.01235920e+03
1.79707595e+03
1.71622289e+03
1.99333950e+03
4.92362132e+02
1.71671598e+03
1.59696836e+03
2.06732232e+03
2.13720682e+03
1.23133173e+03
2.11316937e+03
8.64700446e+02
8.37641503e+02
7.87527886e+02
8.83030393e+02
2.21527101e+03
1.25625512e+03
2.22886300e+03
1.32075244e+03
1.25022247e+03
1.86009634e+03
1.25613580e+03
1.50202044e+03
6.38370816e+02
2.16148178e+03
2.15310699e+03
1.92114959e+03
1.04563243e+03
1.14598620e+03
2.03007013e+03
1.45737127e+03
1.36509373e+03
1.04671029e+03
7.87871763e+02
0.00000000e+00
1.89492043e+03
1.65289868e+03
1.39377201e+03
1.95121393e+03
1.49979988e+03
1.23849131e+03
1.14079957e+03
1.90100550e+03
1.56893952e+03
1.30159290e+03
1.74053969e+03
1.94128347e+03
9.23975342e+02
1.95258655e+03
2.07674216e+03
4.60142912e+02
1.35550969e+03
1.68305098e+03
1.07477200e+03
0.00000000e+00
0.00000000e+00
1.31865694e+03
1.88197578e+03
1.65935748e+03
2.17983483e+03
2.10151407e+03
1.95718504e+03
1.24787923e+03
2.16968884e+03
1.60546148e+03
6.22746561e+02
2.04411879e+03
2.14111389e+03
1.35829419e+03
1.67385708e+03
2.17167284e+03
2.15455681e+03
1.61829786e+03
1.40796270e+03
1.27584375e+03
7.68424889e+02
0.00000000e+00
1.81189456e+03
1.56905082e+03
2.10182063e+03
2.15792916e+03
2.03671624e+03
1.36095462e+03
1.15244913e+03
1.68375997e+03
1.98820824e+03
1.94266796e+03
1.36848181e+03
1.88816780e+03
1.04436028e+03
2.12268087e+03
1.54958697e+03
2.12119837e+03
1.84893342e+03
2.08507232e+03
1.46722397e+03
1.06384963e+03
5.22549412e+02
1.26847316e+03
1.33683914e+03
1.29057841e+03
1.99315940e+03
1.71364951e+03
1.83737314e+03
1.49198477e+03
8.50281342e+02
9.58008358e+02
9.82919797e+02
8.24308744e+02
9.86118362e+02
1.13561673e+03
1.53257761e+03
2.07082330e+03
2.02753512e+03
1.65372883e+03
1.50818447e+03
1.57076560e+03
9.91784971e+02
7.08698081e+02
1.29111765e+03
1.65684900e+03
1.61574827e+03
1.35834298e+03
2.10759378e+03
1.25924405e+03
1.65352951e+03
2.01892635e+03
2.12529293e+03
2.01650117e+03
2.14431836e+03
2.06756846e+03
1.37796212e+03
1.40637504e+03
1.81030120e+03
1.96842406e+03
2.06821783e+03
2.06218852e+03
1.54625903e+03
8.83562301e+02
4.73240897e+02
1.28681841e+03
1.29080070e+03
1.33305932e+03
1.58114346e+03
1.48546079e+03
1.22639605e+03
8.73621459e+02
8.86118983e+02
0.00000000e+00
0.00000000e+00
0.00000000e+00
0.00000000e+00
0.00000000e+00
1.35258987e+03
1.51256481e+03
1.51588139e+03
1.64512603e+03
1.81204011e+03
1.56873190e+03
1.09764069e+03
0.00000000e+00
1.00382223e+03
1.19209161e+03
1.24969769e+03
1.19968742e+03
0.00000000e+00
0.00000000e+00
0.00000000e+00
0.00000000e+00
0.00000000e+00
7.70037182e+02
0.00000000e+00
0.00000000e+00
0.00000000e+00
0.00000000e+00
8.76887215e+02
1.48594613e+03
1.37954389e+03
0.00000000e+00
1.20407411e+03
1.10598139e+03
0.00000000e+00
7.48671278e+02
6.41866626e+02
2.01756429e+03
7.83123183e+02
7.89530785e+02