# vtk DataFile Version 3.0
MPS 3D Simulation Step 2700
ASCII
DATASET UNSTRUCTURED_GRID
POINTS 20213 double
-1.00830495e-03 2.99248162e-04 -9.78430087e-04
-8.86898278e-04 2.81252024e-04 -1.07628805e-03
-8.26509871e-04 3.22294920e-04 -1.13643785e-03
-8.09092177e-04 4.11003737e-04 -1.17209595e-03
-6.98204359e-04 2.97610144e-04 -1.21062204e-03
-5.95406935e-04 3.81882525e-04 -1.28999984e-03
-4.34061197e-04 2.06803657e-04 -1.29274316e-03
-3.62739909e-04 2.24719645e-04 -1.32584994e-03
-2.86619196e-04 1.38912069e-04 -1.29756815e-03
-1.66437850e-04 5.01174558e-04 -1.30667756e-03
3.58287910e-05 2.01939508e-04 -1.22045485e-03
-5.78601003e-05 2.33353611e-04 -1.24913015e-03
-4.85600604e-05 1.69518599e-04 -1.32411159e-03
1.77301113e-04 1.17511119e-04 -1.27885915e-03
2.75201386e-04 1.33408853e-04 -1.28594042e-03
5.27744260e-04 1.42283909e-04 -1.20542502e-03
4.74321512e-04 1.18819037e-04 -1.11282114e-03
6.06513041e-04 1.83255050e-04 -1.20741157e-03
7.31551972e-04 1.21810251e-04 -1.07838399e-03
8.22238168e-04 2.41307303e-04 -9.52379722e-04
1.02344057e-03 1.56239252e-04 -8.54481572e-04
-9.66643415e-04 3.41645937e-04 -1.03140428e-03
-9.01496340e-04 3.53991450e-04 -1.09221941e-03
-8.70740108e-04 4.21006774e-04 -1.12935975e-03
-6.64574220e-04 3.56201189e-04 -1.24787549e-03
-6.51170676e-04 5.24108492e-04 -1.27770602e-03
-6.55039956e-04 4.40704980e-04 -1.27017389e-03
-5.23299866e-04 4.06908073e-04 -1.32574058e-03
-3.59281369e-04 3.11174387e-04 -1.35521623e-03
-2.21397102e-04 2.24819875e-04 -1.35526457e-03
-1.19279569e-04 2.08902007e-04 -1.35036073e-03
2.75541726e-05 1.90602651e-04 -1.34222361e-03
1.25626756e-04 1.73153063e-04 -1.33208767e-03
3.51282613e-04 2.62822143e-04 -1.33659555e-03
3.51378020e-04 3.56219508e-04 -1.36971912e-03
4.30258714e-04 2.48037782e-04 -1.30372626e-03
4.94387112e-04 2.06630532e-04 -1.25852696e-03
5.67031011e-04 2.31284254e-04 -1.24506269e-03
6.02209438e-04 1.15558261e-04 -1.15390992e-03
6.35762529e-04 2.86530118e-04 -1.23242077e-03
8.13744444e-04 2.12828453e-04 -1.09107142e-03
9.87825336e-04 2.05479191e-04 -9.32809001e-04
-9.44604336e-04 4.21741867e-04 -1.07313059e-03
-9.24862236e-04 4.94204410e-04 -1.10268160e-03
-9.20705448e-04 5.72235090e-04 -1.10960396e-03
-7.64428055e-04 3.43220987e-04 -1.18563981e-03
-7.29974855e-04 4.09592689e-04 -1.21959026e-03
-5.80152530e-04 4.69812088e-04 -1.31077036e-03
-4.35096553e-04 2.84905091e-04 -1.32278278e-03
-5.20523811e-04 3.23381386e-04 -1.30483612e-03
-2.94015597e-04 3.68928145e-04 -1.38667269e-03
-1.58972651e-04 2.66672344e-04 -1.37824697e-03
-9.62954368e-06 4.38146559e-04 -1.42392607e-03
1.64383819e-04 2.40016084e-04 -1.36963561e-03
2.88775938e-04 3.07232609e-04 -1.37444741e-03
4.20217123e-04 3.24680587e-04 -1.34076214e-03
3.22057171e-04 1.90239689e-04 -1.30919533e-03
4.98437706e-04 3.66562949e-04 -1.32090088e-03
6.36539744e-04 3.69303165e-04 -1.25173825e-03
5.69336715e-04 3.15838990e-04 -1.27472356e-03
7.29291456e-04 2.64372625e-04 -1.17356202e-03
8.19934621e-04 1.52535489e-04 -1.04938109e-03
8.61694762e-04 1.20882160e-04 -9.79302028e-04
-1.06380497e-03 4.42838785e-04 -9.63750311e-04
-9.92215449e-04 4.90244745e-04 -1.04653332e-03
-8.55374312e-04 5.10182853e-04 -1.14877476e-03
-7.17079957e-04 4.94208387e-04 -1.23643703e-03
-5.06841234e-04 4.92861032e-04 -1.34323619e-03
-4.47770278e-04 3.61863126e-04 -1.34221800e-03
-3.73602120e-04 4.02356059e-04 -1.37080210e-03
-2.18310987e-04 3.25321451e-04 -1.39144662e-03
-1.48883495e-04 3.60623926e-04 -1.40812137e-03
-8.84862336e-05 3.05615044e-04 -1.39733838e-03
6.35039940e-05 4.69548852e-04 -1.42734429e-03
6.61140806e-05 1.28107646e-04 -1.28797531e-03
1.00939553e-04 3.10774059e-04 -1.40147839e-03
1.73677657e-04 3.46128416e-04 -1.40637273e-03
2.73574601e-04 3.86266721e-04 -1.39586233e-03
4.98656161e-04 2.89245772e-04 -1.29771878e-03
5.11565557e-04 4.52581944e-04 -1.32640151e-03
7.93380086e-04 2.84734113e-04 -1.13610337e-03
8.68353455e-04 2.73779869e-04 -1.07360252e-03
8.83063983e-04 2.04949093e-04 -1.02868092e-03
9.43102320e-04 2.54109277e-04 -9.97644045e-04
-1.09453666e-03 5.54949430e-04 -9.42871879e-04
-8.59936731e-04 6.07734683e-04 -1.14792525e-03
-7.86481650e-04 4.85210310e-04 -1.19392823e-03
-5.82381759e-04 5.53593340e-04 -1.31416835e-03
-4.30082100e-04 5.35749405e-04 -1.37166060e-03
-4.41818535e-04 4.47673180e-04 -1.35846219e-03
-2.22769789e-04 4.10551723e-04 -1.40580600e-03
-1.65992930e-04 4.60283400e-04 -1.41726791e-03
-8.84834241e-05 4.05208636e-04 -1.41751668e-03
-1.97858457e-05 5.31209794e-04 -1.43012543e-03
5.66497695e-05 5.53550434e-04 -1.42834472e-03
5.81607874e-05 3.78373049e-04 -1.41960797e-03
1.44652536e-04 4.99823032e-04 -1.42098539e-03
2.97134709e-04 5.54070586e-04 -1.38868165e-03
2.11614407e-04 4.23206689e-04 -1.41202383e-03
3.76044167e-04 4.36915394e-04 -1.37387744e-03
4.41432338e-04 4.11528658e-04 -1.35211631e-03
7.06160081e-04 3.34142620e-04 -1.20681256e-03
8.47787312e-04 3.41764213e-04 -1.11425679e-03
9.23418753e-04 3.27198166e-04 -1.04781396e-03
9.05417425e-04 4.01477913e-04 -1.08155142e-03
-1.08858184e-03 6.38109194e-04 -9.39045233e-04
-9.84226405e-04 5.67374971e-04 -1.05816268e-03
-7.85570068e-04 6.44751940e-04 -1.19002366e-03
-7.97408927e-04 5.62856548e-04 -1.18944250e-03
-5.07356338e-04 5.72525225e-04 -1.34806119e-03
-3.01350765e-04 5.53984780e-04 -1.39946197e-03
-2.98237339e-04 4.51019961e-04 -1.39541904e-03
-2.35210479e-04 5.06509068e-04 -1.40769445e-03
-8.85037250e-05 4.92662474e-04 -1.42365471e-03
-7.27691739e-05 5.90970596e-04 -1.42421347e-03
1.85288015e-05 6.27341827e-04 -1.42556288e-03
1.32011062e-04 4.16821358e-04 -1.42246213e-03
2.30113865e-04 5.01517389e-04 -1.40811449e-03
3.07160049e-04 4.65353562e-04 -1.39311643e-03
2.16967520e-04 2.94722328e-04 -1.38639118e-03
4.24897220e-04 5.95491714e-04 -1.35017671e-03
4.49123061e-04 5.02663136e-04 -1.34884909e-03
5.66396839e-04 4.02644585e-04 -1.29619021e-03
7.76972101e-04 3.66607164e-04 -1.16755211e-03
8.32713492e-04 4.23471379e-04 -1.13848841e-03
9.78354591e-04 4.00582615e-04 -1.01903293e-03
-1.03704055e-03 6.05874728e-04 -1.00449623e-03
-1.04703198e-03 5.20996036e-04 -9.94119196e-04
-8.54165968e-04 6.92983378e-04 -1.14126598e-03
-6.58609961e-04 6.04260950e-04 -1.27217087e-03
-5.90860672e-04 6.31984021e-04 -1.30683460e-03
-3.70031171e-04 5.94514544e-04 -1.38658744e-03
-2.24507364e-04 6.00768862e-04 -1.40945598e-03
-1.53400943e-04 5.50652112e-04 -1.41795560e-03
-1.41106610e-04 6.41489876e-04 -1.41987995e-03
-5.85229047e-05 6.72833545e-04 -1.42542041e-03
1.07306818e-04 6.45819469e-04 -1.41876018e-03
1.40046134e-04 5.76380915e-04 -1.42123482e-03
2.18784873e-04 5.90342795e-04 -1.40549874e-03
2.76518166e-04 6.50576509e-04 -1.38707158e-03
3.51239761e-04 6.24968647e-04 -1.36884859e-03
5.64153095e-04 5.09395836e-04 -1.30010583e-03
6.29599560e-04 5.45838153e-04 -1.27078793e-03
7.11106651e-04 4.13226415e-04 -1.21620675e-03
6.24489583e-04 4.51969383e-04 -1.26842530e-03
9.62087871e-04 4.71876360e-04 -1.04794883e-03
9.39177829e-04 5.49701677e-04 -1.07704939e-03
-1.08428942e-03 7.30182203e-04 -9.21727877e-04
-9.85959292e-04 6.52489609e-04 -1.05200323e-03
-9.24255339e-04 6.55939608e-04 -1.10021861e-03
-7.26736556e-04 5.78765087e-04 -1.23004234e-03
-4.44773350e-04 6.27018092e-04 -1.36702540e-03
-2.88059204e-04 6.47897564e-04 -1.39695034e-03
-2.86533035e-04 7.35164434e-04 -1.38945925e-03
-2.08997631e-04 6.93576637e-04 -1.40642810e-03
-1.23766990e-04 7.24923850e-04 -1.41544139e-03
5.23940875e-06 7.14951423e-04 -1.42009337e-03
8.01172425e-05 7.20282752e-04 -1.41358516e-03
1.92597786e-04 6.70326122e-04 -1.40063475e-03
2.46827709e-04 7.31972514e-04 -1.37794008e-03
3.41001899e-04 7.09329476e-04 -1.36119394e-03
4.23818528e-04 6.84473014e-04 -1.34035511e-03
5.02989745e-04 5.63079227e-04 -1.32461599e-03
5.70381333e-04 6.07669856e-04 -1.29388180e-03
6.90504108e-04 5.89849275e-04 -1.23971012e-03
7.69287391e-04 4.62804168e-04 -1.18491535e-03
8.90173819e-04 4.79644472e-04 -1.10549148e-03
9.60279599e-04 7.01786043e-04 -1.06463573e-03
-1.04077721e-03 6.89825871e-04 -9.88968390e-04
-9.80608718e-04 7.32703306e-04 -1.04006755e-03
-9.16286739e-04 7.35759547e-04 -1.09298022e-03
-5.76810089e-04 7.14270403e-04 -1.30153098e-03
-5.15991920e-04 6.58545316e-04 -1.33968680e-03
-3.64251180e-04 6.80697135e-04 -1.38333674e-03
-3.65228831e-04 7.66400910e-04 -1.36922579e-03
-1.99727409e-04 7.78925947e-04 -1.39854866e-03
-1.22480181e-04 8.03402434e-04 -1.40213781e-03
-4.40852554e-05 7.73257947e-04 -1.41173631e-03
4.43783084e-05 7.95085178e-04 -1.39944177e-03
1.53204160e-04 7.39615482e-04 -1.39507012e-03
2.08114226e-04 8.07988547e-04 -1.36741436e-03
3.04282995e-04 7.85144338e-04 -1.35517480e-03
3.94140530e-04 7.69694991e-04 -1.33752361e-03
4.95919111e-04 6.55562473e-04 -1.31928330e-03
5.51929625e-04 7.78176716e-04 -1.28584273e-03
6.35913194e-04 6.50386859e-04 -1.26291739e-03
6.89949966e-04 4.92214213e-04 -1.23501642e-03
8.27250728e-04 5.16527369e-04 -1.15386338e-03
9.16317858e-04 6.44166978e-04 -1.10091900e-03
-1.03015640e-03 7.73388268e-04 -9.77100429e-04
-9.11129354e-04 8.09389675e-04 -1.07744999e-03
-7.84066044e-04 7.27974997e-04 -1.17766754e-03
-6.48711406e-04 6.91113735e-04 -1.26623306e-03
-5.73064682e-04 7.96029914e-04 -1.28323721e-03
-4.35194623e-04 7.12324490e-04 -1.36114945e-03
-4.36643076e-04 7.98870841e-04 -1.34254627e-03
-2.68021485e-04 8.15498748e-04 -1.37777564e-03
-1.85729906e-04 8.60082918e-04 -1.37797495e-03
-5.41994567e-05 8.52567727e-04 -1.39293470e-03
1.99066618e-05 8.66949089e-04 -1.38307676e-03
1.26117612e-04 8.19326546e-04 -1.37827101e-03
1.75965459e-04 8.90395758e-04 -1.34699263e-03
2.73143259e-04 8.57076009e-04 -1.34227188e-03
3.62441616e-04 8.53264982e-04 -1.32545075e-03
4.78158005e-04 7.53198219e-04 -1.31398992e-03
5.99394319e-04 8.43589395e-04 -1.25115896e-03
5.61390270e-04 6.97483068e-04 -1.29082691e-03
7.54722891e-04 6.33179159e-04 -1.20487442e-03
8.78317299e-04 5.75956507e-04 -1.12578201e-03
9.39287420e-04 8.00189056e-04 -1.05882202e-03
-9.72156285e-04 8.17661344e-04 -1.02179177e-03
-8.84475073e-04 8.80001743e-04 -1.07134610e-03
[...]
POINT_DATA 20213
SCALARS pressure double 1
LOOKUP_TABLE default
0.00000000e+00
8.68556221e+02
1.01345174e+03
1.00684621e+03
0.00000000e+00
0.00000000e+00
0.00000000e+00
0.00000000e+00
0.00000000e+00
5.91044389e+02
6.71216025e+02
6.07268980e+02
0.00000000e+00
5.55681539e+02
6.24313962e+02
0.00000000e+00
5.34614404e+02
0.00000000e+00
0.00000000e+00
3.60870859e+02
0.00000000e+00
8.64537937e+02
1.09056166e+03
1.15250280e+03
0.00000000e+00
0.00000000e+00
0.00000000e+00
0.00000000e+00
0.00000000e+00
0.00000000e+00
4.45062778e+02
0.00000000e+00
0.00000000e+00
9.94596823e+02
1.09338415e+03
0.00000000e+00
6.61476660e+02
5.99945305e+02
0.00000000e+00
0.00000000e+00
0.00000000e+00
0.00000000e+00
1.15887186e+03
0.00000000e+00
0.00000000e+00
8.56090491e+02
0.00000000e+00
0.00000000e+00
0.00000000e+00
0.00000000e+00
0.00000000e+00
0.00000000e+00
0.00000000e+00
0.00000000e+00
1.01580971e+03
0.00000000e+00
8.42383318e+02
9.96969405e+02
8.33278740e+02
9.35708245e+02
0.00000000e+00
0.00000000e+00
0.00000000e+00
9.98991252e+02
1.25607306e+03
1.17781099e+03
0.00000000e+00
0.00000000e+00
0.00000000e+00
0.00000000e+00
0.00000000e+00
0.00000000e+00
0.00000000e+00
0.00000000e+00
0.00000000e+00
0.00000000e+00
8.42992039e+02
1.07553973e+03
0.00000000e+00
0.00000000e+00
0.00000000e+00
0.00000000e+00
0.00000000e+00
0.00000000e+00
1.09434793e+03
1.06641938e+03
9.50370912e+02
0.00000000e+00
0.00000000e+00
0.00000000e+00
4.87699978e+02
0.00000000e+00
0.00000000e+00
0.00000000e+00
0.00000000e+00
0.00000000e+00
5.99006389e+02
6.94769495e+02
9.23605415e+02
1.13048724e+03
0.00000000e+00
0.00000000e+00
0.00000000e+00
0.00000000e+00
0.00000000e+00
1.02573450e+03
1.35499987e+03
0.00000000e+00
1.01492871e+03
0.00000000e+00
0.00000000e+00
3.89977328e+02
4.76026067e+02
0.00000000e+00
0.00000000e+00
0.00000000e+00
0.00000000e+00
0.00000000e+00
9.38411420e+02
0.00000000e+00
0.00000000e+00
9.28261741e+02
1.00391896e+03
0.00000000e+00
0.00000000e+00
0.00000000e+00
1.29851458e+03
1.25630857e+03
0.00000000e+00
0.00000000e+00
0.00000000e+00
0.00000000e+00
0.00000000e+00
0.00000000e+00
0.00000000e+00
0.00000000e+00
0.00000000e+00
0.00000000e+00
0.00000000e+00
0.00000000e+00
0.00000000e+00
9.97112302e+02
7.73859759e+02
0.00000000e+00
9.25523146e+02
0.00000000e+00
0.00000000e+00
9.70789047e+02
1.29081349e+03
0.00000000e+00
0.00000000e+00
0.00000000e+00
0.00000000e+00
5.97831358e+02
4.46154147e+02
0.00000000e+00
0.00000000e+00
0.00000000e+00
0.00000000e+00
0.00000000e+00
6.79593916e+02
6.42625810e+02
8.92924971e+02
8.69066060e+02
0.00000000e+00
0.00000000e+00
0.00000000e+00
0.00000000e+00
1.08068516e+03
1.17337309e+03
1.03700197e+03
0.00000000e+00
0.00000000e+00
0.00000000e+00
0.00000000e+00
5.87629660e+02
6.57218774e+02
0.00000000e+00
0.00000000e+00
0.00000000e+00
5.54762182e+02
0.00000000e+00
7.45820446e+02
0.00000000e+00
0.00000000e+00
7.90503012e+02
0.00000000e+00
0.00000000e+00
0.00000000e+00
0.00000000e+00
9.28897900e+02
8.21465991e+02
0.00000000e+00
0.00000000e+00
0.00000000e+00
0.00000000e+00
0.00000000e+00
6.14531103e+02
0.00000000e+00
0.00000000e+00
0.00000000e+00
7.94922165e+02
0.00000000e+00
8.30274014e+02
0.00000000e+00
0.00000000e+00
8.41107377e+02
0.00000000e+00
0.00000000e+00
1.50759569e+03
9.22720074e+02
0.00000000e+00
6.04581016e+02
7.26147978e+02
0.00000000e+00
0.00000000e+00
0.00000000e+00
7.80218642e+02
7.56153345e+02
0.00000000e+00
6.95009821e+02
0.00000000e+00
0.00000000e+00
9.07858965e+02
1.05188286e+03
7.37152944e+02
0.00000000e+00
0.00000000e+00
0.00000000e+00
0.00000000e+00
1.02017187e+03
0.00000000e+00
0.00000000e+00
7.70448397e+02
0.00000000e+00
0.00000000e+00
0.00000000e+00
6.16626487e+02
7.70658443e+02
8.47661809e+02
0.00000000e+00
6.52496717e+02
7.57274162e+02
9.31027037e+02
1.12732559e+03
8.58036762e+02
8.16595788e+02
0.00000000e+00
1.11161587e+03
1.39981862e+03
1.30663652e+03
1.68973447e+03
9.83058332e+02
1.08612025e+03
9.03165928e+02
0.00000000e+00
7.49671176e+02
0.00000000e+00
8.11510592e+02
8.17248037e+02
7.83426605e+02
0.00000000e+00
6.12988728e+02
0.00000000e+00
9.04883671e+02
9.12236403e+02
0.00000000e+00
0.00000000e+00
0.00000000e+00
1.26053735e+03
1.58450392e+03
1.63136626e+03
1.68857706e+03
9.22233535e+02
9.32718596e+02
0.00000000e+00
0.00000000e+00
8.45703412e+02
9.46870861e+02
0.00000000e+00
9.29621048e+02
5.41437993e+02
0.00000000e+00
0.00000000e+00
0.00000000e+00
1.01881618e+03
1.03497496e+03
0.00000000e+00
9.79306868e+02
1.23269449e+03
1.49773425e+03
0.00000000e+00
0.00000000e+00
1.72555100e+03
9.80371835e+02
9.64723870e+02
7.66550124e+02
8.64805564e+02
8.87198023e+02
1.00445869e+03
9.54324864e+02
7.75701603e+02
0.00000000e+00
0.00000000e+00
0.00000000e+00
0.00000000e+00
0.00000000e+00
1.11126079e+03
0.00000000e+00
0.00000000e+00
1.31076928e+03
1.53363462e+03
1.63189291e+03
1.61151913e+03
0.00000000e+00
0.00000000e+00
8.86436654e+02
0.00000000e+00
7.74191407e+02
9.00030019e+02
1.00245040e+03
1.09915090e+03
0.00000000e+00
0.00000000e+00
0.00000000e+00
0.00000000e+00
0.00000000e+00
9.48832885e+02
1.07099521e+03
1.01507927e+03
1.03251076e+03
1.26004087e+03
1.57679498e+03
1.74859639e+03
1.65866917e+03
1.54683794e+03
0.00000000e+00
6.62591769e+02
7.45211686e+02
0.00000000e+00
0.00000000e+00
1.05943447e+03
1.10228388e+03
0.00000000e+00
0.00000000e+00
0.00000000e+00
0.00000000e+00
0.00000000e+00
8.05872353e+02
9.94746608e+02
9.91797423e+02
0.00000000e+00
0.00000000e+00
1.39256287e+03
1.47000481e+03
1.59678222e+03
1.45817097e+03
8.74388552e+02
0.00000000e+00
0.00000000e+00
0.00000000e+00
0.00000000e+00
0.00000000e+00
0.00000000e+00
1.12916308e+03
1.09478767e+03
0.00000000e+00
0.00000000e+00
0.00000000e+00
7.64021003e+02
0.00000000e+00
0.00000000e+00
0.00000000e+00
0.00000000e+00
0.00000000e+00
1.30363577e+03
1.48513573e+03
1.68469602e+03
0.00000000e+00
0.00000000e+00
6.26307623e+02
0.00000000e+00
0.00000000e+00
0.00000000e+00
8.14995241e+02
0.00000000e+00
1.03045737e+03
1.11763378e+03
8.64431174e+02
7.36826186e+02
0.00000000e+00
7.23372269e+02
0.00000000e+00
0.00000000e+00
1.04594092e+03
0.00000000e+00
1.40164835e+03
1.24765412e+03
1.19869171e+03
7.71703056e+02
7.67236287e+02
0.00000000e+00
7.85751008e+02
0.00000000e+00
0.00000000e+00
0.00000000e+00
1.14660730e+03
1.36964648e+03
1.34920221e+03
1.16314832e+03
1.04731439e+03
0.00000000e+00
0.00000000e+00
9.40316330e+02
1.07457660e+03
0.00000000e+00
1.24229521e+03
1.22803861e+03
1.09179384e+03
0.00000000e+00
9.10079880e+02
0.00000000e+00
8.71006455e+02
0.00000000e+00
1.04073878e+03
8.52219912e+02
1.14120624e+03
1.32853277e+03
0.00000000e+00
0.00000000e+00
1.15685077e+03
0.00000000e+00
0.00000000e+00
0.00000000e+00
9.16029524e+02
1.03502368e+03
1.24861641e+03
1.18788904e+03
1.03079140e+03
0.00000000e+00
0.00000000e+00
6.48922298e+02
0.00000000e+00
0.00000000e+00
7.69474855e+02
8.03109010e+02
0.00000000e+00
0.00000000e+00
0.00000000e+00
4.65534365e+02
7.00521996e+02
9.37742531e+02
7.65848713e+02
5.86322721e+02
9.99220956e+02
8.37618469e+02
9.48278138e+02
0.00000000e+00
1.18263801e+03
1.58363256e+03
0.00000000e+00
0.00000000e+00
0.00000000e+00
2.02975765e+03
1.08215500e+03
1.36844776e+03
9.63196350e+02
1.18714580e+03
7.77102277e+02
9.36034879e+02
5.81361126e+02
9.82885385e+02
1.69955775e+03
1.33576501e+03
2.19933471e+03
1.61940652e+03
1.41567228e+03
1.16362478e+03
1.37693539e+03
1.44876053e+03
1.64562654e+03
1.72061081e+03
0.00000000e+00
1.04675528e+03
1.27890235e+03
1.26544951e+03
1.22787435e+03
2.25788819e+03
2.11005051e+03
1.09280625e+03
0.00000000e+00
0.00000000e+00
3.83042484e+02
0.00000000e+00
4.71665510e+02
0.00000000e+00
9.02127607e+02
2.04210154e+03
1.09321408e+03
1.78072374e+03
1.68687996e+03
1.46601991e+03
1.15522694e+03
0.00000000e+00
0.00000000e+00
1.10815673e+03
1.39804000e+03
2.04120871e+03
1.96922382e+03
2.22840939e+03
8.31569447e+02
7.59914886e+02
2.21366062e+03
1.89939836e+03
2.09391455e+03
1.01152108e+03
9.92673304e+02
1.03651371e+03
9.95931876e+02
9.62924175e+02
1.61711640e+03
1.30725843e+03
1.38310514e+03
1.56800055e+03
0.00000000e+00
6.10180220e+02
1.08015330e+03
2.02450434e+03
9.87896835e+02
1.79938978e+03
1.36783611e+03
1.76354458e+03
7.57134949e+02
6.71209057e+02
1.17247192e+03
1.23593053e+03
1.87985432e+03
2.20545240e+03
1.98278134e+03
2.12661288e+03
1.74949005e+03
1.60613476e+03
1.25948241e+03
1.56367194e+03
1.47400004e+03
0.00000000e+00
0.00000000e+00
1.56611578e+03
1.09556459e+03
1.04963898e+03
1.48101859e+03
0.00000000e+00
1.44615811e+03
1.05914315e+03
8.78473306e+02
6.57030378e+02
1.37849117e+03
9.79827816e+02
1.36184571e+03
1.11378310e+03
2.12623616e+03
0.00000000e+00
2.10190262e+03
1.53608614e+03
1.64219907e+03
1.58043748e+03
0.00000000e+00
0.00000000e+00
1.23579251e+03
1.11806783e+03
1.15568506e+03
1.46258909e+03
1.01540844e+03
1.04168776e+03
1.15289054e+03
7.96775321e+02
1.61562574e+03
8.51009556e+02
1.30079613e+03
1.99782791e+03
1.16931631e+03
1.05221183e+03
1.60596701e+03
1.51295991e+03
1.56830565e+03
1.27085948e+03
1.70675114e+03
0.00000000e+00
0.00000000e+00
1.06579822e+03
8.68141324e+02
1.20902030e+03
1.18952090e+03
1.20792822e+03
9.70052088e+02
1.32193805e+03
9.89024131e+02
1.10866929e+03
9.63741387e+02
1.14675658e+03
1.70703864e+03
1.25838469e+03
1.24824116e+03
1.87109408e+03
1.63146691e+03
1.68509464e+03
0.00000000e+00
1.65414357e+03
0.00000000e+00
0.00000000e+00
1.29538412e+03
0.00000000e+00
2.16483233e+03
2.01250766e+03
1.19551444e+03
1.12896185e+03
1.34608597e+03
1.86871981e+03
2.15874404e+03
1.85166562e+03
1.66170283e+03
1.89944314e+03
1.33112396e+03
1.15686441e+03
1.32517507e+03
2.01345857e+03
1.75396253e+03
0.00000000e+00
1.52390730e+03
1.15296522e+03
0.00000000e+00
1.31390234e+03
0.00000000e+00
1.00709467e+03
1.02454587e+03
1.07048506e+03
1.01879412e+03
9.28419764e+02
1.30507312e+03
9.05396309e+02
8.23116611e+02
7.76903509e+02
1.72348008e+03
9.68525144e+02
1.11384570e+03
1.16743422e+03
1.46100966e+03
1.59571404e+03
6.82734236e+02
1.43723546e+03
1.45723135e+03
9.14141366e+02
1.19582038e+03
7.39451501e+02
1.15916275e+03
1.02598853e+03
1.08883293e+03
1.13137276e+03
1.09724086e+03
1.21273733e+03
1.27971917e+03
1.06301044e+03
1.33970070e+03
2.17928810e+03
1.41747435e+03
1.20776706e+03
1.31367559e+03
1.52478307e+03
2.06438500e+03
8.83715821e+02
1.31315158e+03
1.40464382e+03
8.16267511e+02
1.17473294e+03
8.14615395e+02
9.27755875e+02
9.89892889e+02
1.00742508e+03
1.09040033e+03
7.28606353e+02
1.77122106e+03
1.05797068e+03
1.62652269e+03
1.25420021e+03
1.37681361e+03
1.10435498e+03
1.30504915e+03
1.23059751e+03
1.46860807e+03
1.57499337e+03
1.11914514e+03
9.85910155e+02
1.62927753e+03
0.00000000e+00
1.16250707e+03
0.00000000e+00
1.17700096e+03
1.43789698e+03
1.00629117e+03
1.29786785e+03
1.43614239e+03
2.18738729e+03
1.25171373e+03
1.27279623e+03
1.54382494e+03
2.13702664e+03
1.72914774e+03
1.14044972e+03
1.15806833e+03
1.38673931e+03
1.92556883e+03
0.00000000e+00
1.57170556e+03
1.63574538e+03
0.00000000e+00
9.86155947e+02
0.00000000e+00
1.12852068e+03
8.63172622e+02
8.68471015e+02
1.06455984e+03
1.23633875e+03
1.43831210e+03
8.17363245e+02
6.99741653e+02
8.03991977e+02
1.19233817e+03
7.16078034e+02
1.18882001e+03
1.37880064e+03
1.48209016e+03
1.48775612e+03
1.36555833e+03
1.54029947e+03
0.00000000e+00
0.00000000e+00
9.98199968e+02
1.11500999e+03
8.97006136e+02
1.15743388e+03
8.41990584e+02
1.36692590e+03
1.61846030e+03
1.18098085e+03
8.64570685e+02
1.37459695e+03
9.90676783e+02
9.53697306e+02
9.95248154e+02
1.18807547e+03
1.28360886e+03
1.55145455e+03
1.32654623e+03
1.44722510e+03
1.43709977e+03
1.17088935e+03
0.00000000e+00
1.31859629e+03
1.13609423e+03
9.45461612e+02
8.73089271e+02
9.40495043e+02
1.18642645e+03
1.18106489e+03
1.10436108e+03
1.09993237e+03
1.14802972e+03
1.32321381e+03
9.50501979e+02
9.94787617e+02
9.85503186e+02
0.00000000e+00
1.38408030e+03
1.31402091e+03
1.28466257e+03
1.22429246e+03
1.44900358e+03
0.00000000e+00
1.32741216e+03
1.51497241e+03
9.58720491e+02
1.72220670e+03
1.02882817e+03
1.37014992e+03
1.29319126e+03
1.41663734e+03
1.35166699e+03
9.44641850e+02
1.04072712e+03
1.38981569e+03
1.30245553e+03
1.46388137e+03
1.21799198e+03
1.68822028e+03
1.43407996e+03
1.59299061e+03
1.07050085e+03
7.63085448e+02
0.00000000e+00
1.25650015e+03
1.16960192e+03
1.31973012e+03
1.07619762e+03
1.30887066e+03
1.24902203e+03
1.39200933e+03
1.40212592e+03
1.32485024e+03
1.32983146e+03
1.06304673e+03
1.57180923e+03
1.32550532e+03
1.26521096e+03
1.10908223e+03
1.33080961e+03
1.38786356e+03
1.24638803e+03
1.06750545e+03
1.04604938e+03
0.00000000e+00
1.23412602e+03
1.19588378e+03
1.18322075e+03
1.33599583e+03
1.17985010e+03
1.24369455e+03
1.28016295e+03
1.28128417e+03
0.00000000e+00
1.14028795e+03
0.00000000e+00
0.00000000e+00
0.00000000e+00
1.20552886e+03
1.29697292e+03
1.23466047e+03
1.19957335e+03
8.79956932e+02
1.15988597e+03
8.36604941e+02
7.71278948e+02
1.54682659e+03
1.12387394e+03
1.32956716e+03
1.20153875e+03
1.34033568e+03
1.25975754e+03
1.32846008e+03
1.31835516e+03
1.15063047e+03
1.44835285e+03
1.24804308e+03
1.71344574e+03
1.17524736e+03
1.31100409e+03
1.21646952e+03
1.26688653e+03
1.15084309e+03
1.01923255e+03
1.81247944e+03
0.00000000e+00
9.42805160e+02
1.18832327e+03
1.08126624e+03
1.13475172e+03
0.00000000e+00
9.96662185e+02
0.00000000e+00
0.00000000e+00
1.11464359e+03
1.06716382e+03
9.67333386e+02
0.00000000e+00
9.86344212e+02
9.17057334e+02
1.23891113e+03
0.00000000e+00
1.06577021e+03
1.10841303e+03
9.00985383e+02
0.00000000e+00
0.00000000e+00
0.00000000e+00
0.00000000e+00
0.00000000e+00
6.38631619e+02
1.10034524e+03
0.00000000e+00
0.00000000e+00
0.00000000e+00
0.00000000e+00
6.53093143e+02
4.42191837e+02
1.00179857e+03
9.21436562e+02
0.00000000e+00
1.05312062e+03
0.00000000e+00
9.85975236e+02
1.32440007e+03
0.00000000e+00
0.00000000e+00
8.23746180e+02
0.00000000e+00
2.04692165e+03
1.13604168e+03
1.21766064e+03
2.00336620e+03
1.06959625e+03
6.57622561e+02
4.12866766e+02
9.27602513e+02
0.00000000e+00
4.96064602e+02
8.76721279e+02
5.57725724e+02
7.30261406e+02
9.00532979e+02
1.34154675e+03
1.85913855e+03
1.19502008e+03
1.59636149e+03
7.63211078e+02
0.00000000e+00
0.00000000e+00
1.11083450e+03
1.28842689e+03
1.69465070e+03
2.12404565e+03
1.88119558e+03
1.83393335e+03
9.12245188e+02
1.72948249e+03
1.90616999e+03
2.18153737e+03
1.81788585e+03
2.10828763e+03
1.43628418e+03
1.42315119e+03
1.65179613e+03
2.06762960e+03
1.86120034e+03
1.63743636e+03
1.11217033e+03
0.00000000e+00
0.00000000e+00
1.04276598e+03
1.80429887e+03
1.83637813e+03
1.42405690e+03
1.97773391e+03
1.69254150e+03
1.97325813e+03
1.77310014e+03
7.97638507e+02
6.00371884e+02
9.17216481e+02
1.10369211e+03
2.15751801e+03
2.12817487e+03
2.04317480e+03
2.01238153e+03
1.65351685e+03
1.74807274e+03
2.02728265e+03
0.00000000e+00
0.00000000e+00
1.72306974e+03
2.31588189e+03
2.20407655e+03
1.72848205e+03
1.77322004e+03
2.04607456e+03
9.78022518e+02
2.11444534e+03
1.59919308e+03
2.08683177e+03
2.21117743e+03
1.92882701e+03
2.00062455e+03
2.05791577e+03
6.79400736e+02
1.86259908e+03
2.07220668e+03
1.87612770e+03
1.60321249e+03
0.00000000e+00
6.17350809e+02
1.37719333e+03
2.18287048e+03
1.39963421e+03
1.43958295e+03
1.22033400e+03
1.83639883e+03
1.76520042e+03
1.98964616e+03
1.92017227e+03
2.15060571e+03
1.33442716e+03
1.92430044e+03
2.15118621e+03
1.84141802e+03
1.92489418e+03
1.43243514e+03
2.10172800e+03
1.97644638e+03
1.30241457e+03
0.00000000e+00
0.00000000e+00
1.30948805e+03
2.23603034e+03
2.17051589e+03
1.33827854e+03
2.15287772e+03
8.58242551e+02
1.48982792e+03
1.08801150e+03
1.43679872e+03
2.08141044e+03
2.24084699e+03
1.76872492e+03
1.15325828e+03
1.50929080e+03
2.05471799e+03
9.74435082e+02
1.77621486e+03
1.95619934e+03
1.62023079e+03
7.74699615e+02
0.00000000e+00
0.00000000e+00
1.47786272e+03
1.70519568e+03
1.35235369e+03
1.46921175e+03
9.71469742e+02
2.24941445e+03
2.24618624e+03
2.11305502e+03
1.29699734e+03
1.90128007e+03
1.77427910e+03
1.67990782e+03
1.80612954e+03
1.36971131e+03
1.84103000e+03
1.99858867e+03
1.98210545e+03
8.93022323e+02
0.00000000e+00
0.00000000e+00
0.00000000e+00
2.28251620e+03
1.23962228e+03
1.43807916e+03
1.77424391e+03
2.16212378e+03
2.26904576e+03
1.11889836e+03
1.45847759e+03
9.11210184e+02
1.57320808e+03
2.07206713e+03
2.00225934e+03
2.04944454e+03
1.83384782e+03
2.00841021e+03
1.64769107e+03
1.80461750e+03
1.09549921e+03
6.77422848e+02
8.33559133e+02
8.19348806e+02
1.83258942e+03
1.03236031e+03
1.70366180e+03
1.88775214e+03
1.86608544e+03
2.42566937e+03
2.26343441e+03
1.01776952e+03
2.28114116e+03
1.96339427e+03
1.74629135e+03
2.16885090e+03
1.42714972e+03
2.04012709e+03
1.43029673e+03
1.65676971e+03
2.07442043e+03
1.01928160e+03
0.00000000e+00
9.38395946e+02
9.07413860e+02
1.33727976e+03
1.07283177e+03
1.53933422e+03
9.77503338e+02
1.18899445e+03
1.25698534e+03
2.26950580e+03
2.13515043e+03
2.12105482e+03
2.06373825e+03
2.10119009e+03
1.71434665e+03
1.53132456e+03
1.04911793e+03
1.48850094e+03
1.34471712e+03
1.93286424e+03
1.20885627e+03
8.37148646e+02
1.02293681e+03
8.65321081e+02
1.94506038e+03
9.98561125e+02
1.16685134e+03
2.31105660e+03
1.22187493e+03
2.41014699e+03
1.96584246e+03
1.93537849e+03
1.87216724e+03
1.16879585e+03
2.21708570e+03
2.10856831e+03
1.37998036e+03
1.51544474e+03
1.66106865e+03
1.57152077e+03
1.95274481e+03
8.33578062e+02
0.00000000e+00
9.21412265e+02
8.81186760e+02
2.19475099e+03
9.59459530e+02
2.16700362e+03
2.34918872e+03
2.16820489e+03
1.89015920e+03
2.20060835e+03
1.71279340e+03
1.77787975e+03
1.64320614e+03
2.13335523e+03
1.63273969e+03
2.10407722e+03
1.80787706e+03
1.90240175e+03
1.45165641e+03
2.07979456e+03
1.19749635e+03
0.00000000e+00
9.30874003e+02
0.00000000e+00
1.89742863e+03
1.24451487e+03
1.86507298e+03
1.16035544e+03
1.21507519e+03
1.85619565e+03
1.38920800e+03
1.38609806e+03
2.29013819e+03
1.57393636e+03
1.98724997e+03
1.32907779e+03
1.03371688e+03
1.29389651e+03
1.81468891e+03
1.58176653e+03
1.23012661e+03
1.18723763e+03
0.00000000e+00
0.00000000e+00
1.24342549e+03
1.40445947e+03
1.30186411e+03
1.58196121e+03
1.41167807e+03
1.18980352e+03
9.43184684e+02
1.58528031e+03
1.37503180e+03
1.31429977e+03
1.34881977e+03
2.09302543e+03
1.10654921e+03
1.51652707e+03
1.85247111e+03
1.88756469e+03
1.46986077e+03
1.68893886e+03
1.09145074e+03
0.00000000e+00
0.00000000e+00
1.32700766e+03
1.86009128e+03
1.41705062e+03
2.36359047e+03
1.92920516e+03
1.68030826e+03
1.34829869e+03
1.87949052e+03
1.69128978e+03
2.21212751e+03
2.06558643e+03
1.81005331e+03
1.19185997e+03
1.34402571e+03
2.00314632e+03
2.04482043e+03
1.38062114e+03
1.25771435e+03
8.29043777e+02
0.00000000e+00
8.34586784e+02
1.48863459e+03
2.39507487e+03
1.61909495e+03
2.04983694e+03
2.34004580e+03
2.50073398e+03
1.36872637e+03
1.43041614e+03
1.63500385e+03
2.33919888e+03
1.43239408e+03
2.15027898e+03
1.19575484e+03
1.83814495e+03
1.87482389e+03
2.04016903e+03
1.55799656e+03
2.03332239e+03
9.39966384e+02
0.00000000e+00
0.00000000e+00
1.23684736e+03
1.35344627e+03
1.32863295e+03
2.19639182e+03
1.53084822e+03
1.52981851e+03
1.42525629e+03
1.32236581e+03
1.26769185e+03
1.32524469e+03
1.07712078e+03
1.11362129e+03
1.32980999e+03
1.36736780e+03
1.53739062e+03
1.80363415e+03
1.56844529e+03
1.30811582e+03
9.24232533e+02
0.00000000e+00
0.00000000e+00
1.31175476e+03
1.87749060e+03
1.66771515e+03
1.40798472e+03
2.03409125e+03
1.35015897e+03
1.72098474e+03
2.36864073e+03
2.10685521e+03
2.24135305e+03
1.92052672e+03
2.21856350e+03
1.31947720e+03
1.39854496e+03
1.57239844e+03
1.84548255e+03
1.53675413e+03
2.01954242e+03
9.37033701e+02
0.00000000e+00
8.51182297e+02
1.12047391e+03
1.16525456e+03
1.24910140e+03
1.57394531e+03
1.43476006e+03
1.29756138e+03
1.07119645e+03
1.03357205e+03
0.00000000e+00
0.00000000e+00
1.09893236e+03
0.00000000e+00
1.09563348e+03
1.33410079e+03
1.31349414e+03
1.25977620e+03
9.89991792e+02
1.41904704e+03
6.68787617e+02
0.00000000e+00
9.99185211e+02
1.23067205e+03
1.21036472e+03
1.13218126e+03
1.16877704e+03
9.62701792e+02
0.00000000e+00
1.04504534e+03
9.89596088e+02
1.15925850e+03
1.14409757e+03
1.17367314e+03
1.30309763e+03
0.00000000e+00
1.20811041e+03
1.12481850e+03
0.00000000e+00
8.44850105e+02
0.00000000e+00
0.00000000e+00
0.00000000e+00
0.00000000e+00
1.30112542e+03
0.00000000e+00
1.57977048e+03
1.15868234e+03
9.46770170e+02