# vtk DataFile Version 3.0
MPS 3D Simulation Step 2600
ASCII
DATASET UNSTRUCTURED_GRID
POINTS 20213 double
-1.05204348e-03 2.87134211e-04 -1.02396681e-03
-9.37739570e-04 2.71526517e-04 -1.10752525e-03
-8.47395313e-04 2.86529902e-04 -1.17791459e-03
-8.53896930e-04 3.90188460e-04 -1.20388745e-03
-7.27300414e-04 3.13104514e-04 -1.25038401e-03
-5.91872525e-04 3.57443114e-04 -1.33126986e-03
-4.50298232e-04 1.94846770e-04 -1.32889680e-03
-3.83479292e-04 2.33875265e-04 -1.36946096e-03
-2.99296923e-04 1.16856433e-04 -1.29877367e-03
-1.46761225e-04 4.79960362e-04 -1.34852853e-03
5.14224561e-05 1.44704276e-04 -1.26913467e-03
-7.46142160e-05 1.55815000e-04 -1.28365121e-03
-6.60085919e-05 1.67168372e-04 -1.38431708e-03
1.84531515e-04 1.15821954e-04 -1.31348696e-03
2.81707068e-04 1.54054803e-04 -1.35280159e-03
5.61545540e-04 1.79382926e-04 -1.26562493e-03
5.14480200e-04 1.12940875e-04 -1.21912100e-03
6.33153277e-04 1.80245324e-04 -1.22554444e-03
7.64360642e-04 1.21881941e-04 -1.10883123e-03
8.28768625e-04 2.13249262e-04 -9.74529189e-04
1.02155922e-03 1.59241885e-04 -9.21139452e-04
-9.98600549e-04 3.10958588e-04 -1.07843849e-03
-9.01974197e-04 3.29956237e-04 -1.15652597e-03
-9.14586427e-04 4.19425980e-04 -1.16835756e-03
-6.61254962e-04 3.34052057e-04 -1.29248046e-03
-6.61600304e-04 4.97063663e-04 -1.31812498e-03
-6.68573599e-04 4.17143659e-04 -1.30916758e-03
-5.20525823e-04 4.03801396e-04 -1.36884138e-03
-3.73714509e-04 3.17862586e-04 -1.39715543e-03
-2.42350438e-04 2.19774622e-04 -1.39354175e-03
-1.33124346e-04 1.96812241e-04 -1.39917978e-03
2.15925882e-05 1.89058987e-04 -1.38815224e-03
1.54444529e-04 1.90144452e-04 -1.38994263e-03
3.92548682e-04 2.57326371e-04 -1.37736591e-03
3.81584678e-04 3.42373605e-04 -1.40660679e-03
4.67222546e-04 2.43412435e-04 -1.35006967e-03
4.99833919e-04 1.95294176e-04 -1.30842979e-03
6.01073821e-04 2.45042167e-04 -1.28314155e-03
5.99591031e-04 1.17900204e-04 -1.16827112e-03
6.69593753e-04 2.79737908e-04 -1.26263010e-03
8.42893523e-04 2.31286712e-04 -1.14038422e-03
1.00508786e-03 1.99163213e-04 -9.81110749e-04
-9.70119756e-04 3.74507937e-04 -1.11747652e-03
-9.64098418e-04 4.66875473e-04 -1.13644745e-03
-9.32481175e-04 5.35003732e-04 -1.15580119e-03
-7.98147899e-04 3.40624956e-04 -1.22245934e-03
-7.34695901e-04 3.97656817e-04 -1.26917169e-03
-5.94182553e-04 4.37693248e-04 -1.34579029e-03
-4.50472306e-04 2.78966619e-04 -1.36052613e-03
-5.17314881e-04 3.19781873e-04 -1.35066401e-03
-3.08199778e-04 3.61453475e-04 -1.42128596e-03
-1.72393410e-04 2.54870395e-04 -1.41516950e-03
-8.22759387e-06 4.17594236e-04 -1.46071423e-03
1.78147971e-04 2.71894755e-04 -1.42136824e-03
3.21693351e-04 2.94771974e-04 -1.40996595e-03
4.61578853e-04 3.16009071e-04 -1.37586130e-03
3.28180126e-04 2.05892910e-04 -1.37280833e-03
5.36221144e-04 3.53594357e-04 -1.35477898e-03
6.76316593e-04 3.58820154e-04 -1.28815303e-03
6.02505220e-04 3.27908538e-04 -1.31627006e-03
7.72880942e-04 2.64969152e-04 -1.19681792e-03
8.40910280e-04 1.63342833e-04 -1.09378150e-03
8.75744045e-04 1.20805808e-04 -1.02703254e-03
-1.09646189e-03 4.29278421e-04 -1.00316365e-03
-1.02020631e-03 4.44533920e-04 -1.08561881e-03
-8.67000535e-04 4.85239744e-04 -1.19754093e-03
-7.35812909e-04 4.84929774e-04 -1.27702336e-03
-5.30013322e-04 4.92440886e-04 -1.37681397e-03
-4.44506208e-04 3.63777583e-04 -1.38867839e-03
-3.78286350e-04 4.12963038e-04 -1.41311543e-03
-2.47024498e-04 3.07799123e-04 -1.41968454e-03
-1.72009415e-04 3.48450348e-04 -1.44276464e-03
-1.08822393e-04 2.99082180e-04 -1.43737801e-03
6.52154882e-05 4.60277630e-04 -1.46389510e-03
9.71340539e-05 1.40441641e-04 -1.34888516e-03
1.04669362e-04 3.01547045e-04 -1.43699317e-03
1.79005381e-04 3.56680778e-04 -1.44593841e-03
3.12135968e-04 3.89098195e-04 -1.42977062e-03
5.37924616e-04 2.75016726e-04 -1.32926199e-03
5.33649699e-04 4.35689752e-04 -1.36435918e-03
8.35591179e-04 3.09700441e-04 -1.17667964e-03
9.01865334e-04 2.86942050e-04 -1.12024343e-03
9.05118161e-04 2.15666282e-04 -1.08317142e-03
9.74408935e-04 2.54907420e-04 -1.04178873e-03
-1.11586336e-03 5.24140231e-04 -9.80563060e-04
-8.73449814e-04 5.73512638e-04 -1.18997429e-03
-7.99098215e-04 4.37712887e-04 -1.23902518e-03
-5.93717628e-04 5.31729997e-04 -1.35012197e-03
-4.65692515e-04 5.39728653e-04 -1.40087102e-03
-4.55836595e-04 4.52967435e-04 -1.39824926e-03
-2.26053801e-04 4.00243287e-04 -1.44142411e-03
-1.51923800e-04 4.49525505e-04 -1.45294390e-03
-9.18602533e-05 3.85544427e-04 -1.45307677e-03
-4.54768050e-06 5.10399847e-04 -1.46091095e-03
9.24820375e-05 5.34517677e-04 -1.45880487e-03
5.22440280e-05 3.56837823e-04 -1.45446691e-03
1.62473237e-04 4.70108150e-04 -1.45635333e-03
3.05626332e-04 5.68195400e-04 -1.42821298e-03
2.35750423e-04 4.28426658e-04 -1.44570482e-03
3.83921467e-04 4.29767768e-04 -1.41280634e-03
4.58939152e-04 3.91655180e-04 -1.38838508e-03
7.38471084e-04 3.20179984e-04 -1.23972192e-03
8.91477877e-04 3.61300080e-04 -1.15190779e-03
9.60912026e-04 3.25510433e-04 -1.08381939e-03
9.41395625e-04 4.10781891e-04 -1.11766560e-03
-1.11134957e-03 6.14589455e-04 -9.69787949e-04
-1.00668305e-03 5.35667375e-04 -1.09481453e-03
-8.08605868e-04 6.11993480e-04 -1.22382938e-03
-8.01472711e-04 5.26049026e-04 -1.23769228e-03
-5.29230858e-04 5.82762351e-04 -1.38112164e-03
-3.11199059e-04 5.29208489e-04 -1.43136338e-03
-2.99309646e-04 4.45405713e-04 -1.43200208e-03
-2.27298223e-04 4.87827620e-04 -1.44427221e-03
-7.40666478e-05 4.73610425e-04 -1.45770633e-03
-7.18997342e-05 5.65935691e-04 -1.45215034e-03
1.87959336e-05 5.90603321e-04 -1.45483374e-03
1.20900234e-04 4.01424366e-04 -1.45796168e-03
2.39229748e-04 5.15011439e-04 -1.44613016e-03
3.14380334e-04 4.79149424e-04 -1.42978529e-03
2.51391059e-04 3.36122075e-04 -1.43412921e-03
4.55485525e-04 5.75781816e-04 -1.38756295e-03
4.58806131e-04 4.75685421e-04 -1.39072955e-03
6.11455969e-04 4.12528878e-04 -1.33222899e-03
8.06215599e-04 3.74217835e-04 -1.21248062e-03
8.57065735e-04 4.30050910e-04 -1.18324607e-03
1.00256027e-03 3.92116246e-04 -1.06410736e-03
-1.06468548e-03 5.79401396e-04 -1.03478916e-03
-1.06514038e-03 4.95745120e-04 -1.04138548e-03
-8.88478348e-04 6.52253019e-04 -1.16829927e-03
-6.66422565e-04 5.79050252e-04 -1.31228579e-03
-5.97762840e-04 6.18390143e-04 -1.34326966e-03
-3.91291226e-04 5.85857173e-04 -1.41614408e-03
-2.28248915e-04 5.66574719e-04 -1.44072801e-03
-1.51899969e-04 5.35542587e-04 -1.44976003e-03
-1.38288489e-04 6.19548045e-04 -1.44245762e-03
-5.03743965e-05 6.47069249e-04 -1.44536312e-03
9.07672997e-05 6.25653388e-04 -1.45186400e-03
1.66190041e-04 5.57890958e-04 -1.45524722e-03
2.30476376e-04 6.07806807e-04 -1.44121980e-03
2.86466389e-04 6.57924501e-04 -1.42417198e-03
3.78072030e-04 6.09561021e-04 -1.40801032e-03
5.92797850e-04 4.95660653e-04 -1.34185933e-03
6.57821026e-04 5.30389337e-04 -1.31176044e-03
7.43907453e-04 4.03670268e-04 -1.25521549e-03
6.74988003e-04 4.41386973e-04 -1.30074488e-03
9.88241245e-04 4.80470231e-04 -1.08439502e-03
9.50269485e-04 5.48108274e-04 -1.11329120e-03
-1.10251446e-03 7.08760404e-04 -9.51746923e-04
-1.01208923e-03 6.21244897e-04 -1.08188217e-03
-9.54207772e-04 6.07117615e-04 -1.13073947e-03
-7.38044907e-04 5.69673277e-04 -1.27172709e-03
-4.57292105e-04 6.29214879e-04 -1.39574430e-03
-3.08081273e-04 6.11887391e-04 -1.42690510e-03
-2.90591424e-04 6.90618488e-04 -1.41824256e-03
-2.17852559e-04 6.43653847e-04 -1.43187892e-03
-1.31512432e-04 6.99912536e-04 -1.43129800e-03
2.07890809e-05 6.85519787e-04 -1.44316638e-03
9.13796260e-05 7.18841885e-04 -1.43725875e-03
1.63725002e-04 6.47987994e-04 -1.44476473e-03
2.46195037e-04 7.28717481e-04 -1.41741055e-03
3.59143161e-04 6.85727448e-04 -1.40684243e-03
4.44070370e-04 6.70772736e-04 -1.38652216e-03
5.22673882e-04 5.27367700e-04 -1.36851322e-03
5.78032514e-04 5.84886820e-04 -1.34697217e-03
7.10157071e-04 5.87700299e-04 -1.28252550e-03
7.96719282e-04 4.68437798e-04 -1.22615577e-03
9.09015722e-04 4.83612883e-04 -1.14641671e-03
9.89526365e-04 6.99756671e-04 -1.07171514e-03
-1.06639245e-03 6.66344960e-04 -1.01492143e-03
-1.00941411e-03 6.98423848e-04 -1.06684693e-03
-9.45962579e-04 6.94259068e-04 -1.12183010e-03
-6.05822946e-04 6.98914022e-04 -1.32438378e-03
-5.29509294e-04 6.68243049e-04 -1.36694069e-03
-3.78767511e-04 6.71510474e-04 -1.40530649e-03
-3.45275394e-04 7.48517402e-04 -1.39823709e-03
-2.14728203e-04 7.29046943e-04 -1.41906030e-03
-1.46914155e-04 7.82347345e-04 -1.41394411e-03
-5.39165975e-05 7.33581620e-04 -1.43292832e-03
2.21619678e-05 7.75457058e-04 -1.42526354e-03
1.69858223e-04 7.25845954e-04 -1.42931964e-03
2.01354757e-04 8.05139710e-04 -1.40218487e-03
3.16359635e-04 7.55204914e-04 -1.40045054e-03
4.01579093e-04 7.51418230e-04 -1.38230671e-03
5.11110358e-04 6.42248885e-04 -1.36844276e-03
5.50917753e-04 7.47962792e-04 -1.33688859e-03
6.41949451e-04 6.22124945e-04 -1.31636068e-03
7.27249193e-04 4.94920844e-04 -1.27244276e-03
8.50411906e-04 5.27425708e-04 -1.18772783e-03
9.42882227e-04 6.46371364e-04 -1.11487747e-03
-1.04730829e-03 7.51119994e-04 -1.00477996e-03
-9.29477995e-04 7.73499184e-04 -1.11164463e-03
-8.22116978e-04 6.96209952e-04 -1.20116165e-03
-6.73718344e-04 6.60298437e-04 -1.29730976e-03
-6.00857909e-04 7.80446608e-04 -1.30526365e-03
-4.53927776e-04 7.13531918e-04 -1.37900138e-03
-4.14084761e-04 7.80288746e-04 -1.37425259e-03
-2.63276309e-04 7.88515187e-04 -1.39902012e-03
-1.95549539e-04 8.41292956e-04 -1.39196246e-03
-6.58136875e-05 8.12701489e-04 -1.41494801e-03
3.89891868e-06 8.52373729e-04 -1.40433122e-03
1.11385768e-04 7.97836468e-04 -1.41430531e-03
1.58027937e-04 8.70185836e-04 -1.38622758e-03
2.79964072e-04 8.29144132e-04 -1.38338003e-03
3.68089700e-04 8.24669168e-04 -1.36813768e-03
4.80190637e-04 7.39688904e-04 -1.36224988e-03
6.12365028e-04 8.20311361e-04 -1.28683691e-03
5.80139626e-04 6.73734513e-04 -1.33863561e-03
7.55466470e-04 6.46015484e-04 -1.25376831e-03
8.92433509e-04 5.93162001e-04 -1.15436854e-03
9.56773011e-04 7.78773707e-04 -1.07355429e-03
-9.90325126e-04 7.76012150e-04 -1.06017434e-03
-9.03498011e-04 8.49586584e-04 -1.09887715e-03
[...]
POINT_DATA 20213
SCALARS pressure double 1
LOOKUP_TABLE default
0.00000000e+00
7.35030367e+02
0.00000000e+00
0.00000000e+00
0.00000000e+00
8.47716906e+02
9.05986832e+02
9.28200551e+02
7.48363800e+02
7.02392218e+02
6.98158080e+02
6.55563640e+02
0.00000000e+00
6.09328673e+02
0.00000000e+00
0.00000000e+00
4.94797008e+02
0.00000000e+00
0.00000000e+00
1.13282696e+03
0.00000000e+00
8.12838314e+02
6.71132982e+02
0.00000000e+00
0.00000000e+00
0.00000000e+00
0.00000000e+00
9.21844004e+02
0.00000000e+00
7.03147286e+02
6.24078900e+02
0.00000000e+00
0.00000000e+00
0.00000000e+00
9.45127747e+02
0.00000000e+00
0.00000000e+00
0.00000000e+00
4.94080015e+02
0.00000000e+00
0.00000000e+00
1.19417478e+03
0.00000000e+00
0.00000000e+00
0.00000000e+00
0.00000000e+00
0.00000000e+00
0.00000000e+00
1.03734452e+03
1.05308121e+03
0.00000000e+00
0.00000000e+00
0.00000000e+00
1.00832896e+03
9.94898148e+02
7.81005529e+02
0.00000000e+00
8.86708734e+02
1.04393026e+03
9.51148299e+02
0.00000000e+00
0.00000000e+00
8.90247634e+02
0.00000000e+00
7.45400909e+02
5.45406453e+02
0.00000000e+00
0.00000000e+00
8.10783882e+02
0.00000000e+00
0.00000000e+00
0.00000000e+00
0.00000000e+00
0.00000000e+00
6.30759603e+02
9.02030044e+02
1.07179423e+03
0.00000000e+00
0.00000000e+00
1.05320535e+03
0.00000000e+00
0.00000000e+00
9.49287245e+02
1.25682994e+03
1.35647368e+03
0.00000000e+00
0.00000000e+00
0.00000000e+00
0.00000000e+00
0.00000000e+00
0.00000000e+00
0.00000000e+00
0.00000000e+00
0.00000000e+00
0.00000000e+00
0.00000000e+00
0.00000000e+00
8.89099788e+02
0.00000000e+00
0.00000000e+00
0.00000000e+00
0.00000000e+00
0.00000000e+00
0.00000000e+00
9.74341560e+02
1.27481414e+03
8.22379057e+02
0.00000000e+00
0.00000000e+00
0.00000000e+00
0.00000000e+00
0.00000000e+00
0.00000000e+00
0.00000000e+00
4.88744927e+02
0.00000000e+00
7.72053240e+02
8.78408092e+02
9.70067937e+02
9.58087679e+02
9.63195872e+02
1.08277657e+03
0.00000000e+00
0.00000000e+00
1.04188672e+03
0.00000000e+00
1.10636200e+03
1.04637833e+03
0.00000000e+00
0.00000000e+00
0.00000000e+00
0.00000000e+00
6.40919970e+02
6.00582926e+02
5.79491054e+02
0.00000000e+00
0.00000000e+00
0.00000000e+00
9.05751359e+02
0.00000000e+00
9.02702659e+02
0.00000000e+00
1.13023374e+03
1.11866978e+03
1.23997140e+03
1.00117850e+03
9.76386279e+02
0.00000000e+00
0.00000000e+00
6.96203965e+02
0.00000000e+00
0.00000000e+00
0.00000000e+00
5.83755297e+02
6.04910010e+02
0.00000000e+00
0.00000000e+00
0.00000000e+00
7.09851517e+02
7.23164287e+02
9.01751045e+02
0.00000000e+00
1.08412157e+03
0.00000000e+00
1.14713583e+03
1.11596186e+03
1.14349032e+03
0.00000000e+00
0.00000000e+00
0.00000000e+00
0.00000000e+00
6.89558435e+02
0.00000000e+00
0.00000000e+00
0.00000000e+00
0.00000000e+00
0.00000000e+00
0.00000000e+00
0.00000000e+00
6.90289356e+02
6.53849477e+02
0.00000000e+00
8.12655398e+02
0.00000000e+00
1.11780517e+03
1.13768607e+03
1.23987775e+03
1.18410308e+03
0.00000000e+00
0.00000000e+00
0.00000000e+00
7.51149016e+02
0.00000000e+00
9.32089103e+02
0.00000000e+00
0.00000000e+00
4.66764498e+02
0.00000000e+00
0.00000000e+00
5.59677685e+02
0.00000000e+00
0.00000000e+00
0.00000000e+00
0.00000000e+00
1.06157081e+03
1.04494696e+03
1.11824828e+03
0.00000000e+00
1.10742704e+03
0.00000000e+00
0.00000000e+00
0.00000000e+00
0.00000000e+00
1.09632933e+03
8.53808811e+02
8.80588019e+02
0.00000000e+00
0.00000000e+00
5.54622191e+02
0.00000000e+00
1.01788788e+03
0.00000000e+00
6.61100692e+02
0.00000000e+00
0.00000000e+00
8.92331960e+02
1.00897572e+03
1.08178939e+03
0.00000000e+00
1.17646831e+03
0.00000000e+00
0.00000000e+00
0.00000000e+00
1.09319444e+03
1.21048358e+03
1.14828037e+03
1.03709867e+03
0.00000000e+00
0.00000000e+00
0.00000000e+00
0.00000000e+00
0.00000000e+00
0.00000000e+00
8.43235670e+02
0.00000000e+00
0.00000000e+00
9.05122296e+02
0.00000000e+00
0.00000000e+00
8.86716853e+02
1.06064958e+03
0.00000000e+00
9.94832620e+02
9.77486777e+02
8.36548517e+02
1.06908041e+03
1.17125436e+03
9.28231542e+02
7.73221696e+02
0.00000000e+00
0.00000000e+00
8.14870586e+02
7.81228619e+02
0.00000000e+00
1.02670883e+03
0.00000000e+00
0.00000000e+00
0.00000000e+00
0.00000000e+00
0.00000000e+00
0.00000000e+00
0.00000000e+00
8.87549087e+02
8.13019200e+02
0.00000000e+00
8.09409496e+02
0.00000000e+00
1.06085952e+03
8.87949034e+02
0.00000000e+00
0.00000000e+00
0.00000000e+00
8.41425805e+02
0.00000000e+00
0.00000000e+00
1.02386099e+03
0.00000000e+00
0.00000000e+00
0.00000000e+00
9.57217852e+02
0.00000000e+00
0.00000000e+00
8.89482444e+02
7.74533161e+02
8.16216383e+02
0.00000000e+00
0.00000000e+00
0.00000000e+00
0.00000000e+00
0.00000000e+00
5.96333396e+02
0.00000000e+00
0.00000000e+00
0.00000000e+00
0.00000000e+00
1.16168082e+03
1.23721588e+03
1.24217679e+03
9.54083606e+02
9.57926616e+02
0.00000000e+00
1.34986771e+03
1.24445517e+03
0.00000000e+00
0.00000000e+00
0.00000000e+00
0.00000000e+00
6.67433997e+02
0.00000000e+00
0.00000000e+00
7.36060823e+02
6.14221106e+02
0.00000000e+00
6.43044487e+02
0.00000000e+00
9.10516085e+02
1.06883273e+03
1.25781855e+03
1.32275128e+03
1.11157251e+03
1.17704049e+03
1.24485549e+03
1.63443703e+03
1.21020343e+03
0.00000000e+00
0.00000000e+00
0.00000000e+00
0.00000000e+00
5.57984717e+02
0.00000000e+00
0.00000000e+00
7.52145265e+02
0.00000000e+00
0.00000000e+00
0.00000000e+00
0.00000000e+00
1.00319677e+03
1.06273618e+03
1.14867081e+03
1.16822732e+03
1.23963198e+03
0.00000000e+00
0.00000000e+00
1.44856516e+03
1.80923323e+03
1.53130044e+03
1.36167751e+03
0.00000000e+00
0.00000000e+00
0.00000000e+00
0.00000000e+00
0.00000000e+00
9.81101394e+02
7.37113310e+02
0.00000000e+00
0.00000000e+00
0.00000000e+00
0.00000000e+00
9.83712868e+02
0.00000000e+00
0.00000000e+00
0.00000000e+00
1.32142013e+03
1.30350552e+03
1.51263553e+03
1.83968590e+03
1.66054451e+03
1.17627473e+03
0.00000000e+00
0.00000000e+00
0.00000000e+00
6.28940667e+02
0.00000000e+00
1.34290713e+03
0.00000000e+00
1.00601117e+03
0.00000000e+00
7.55209807e+02
8.71027666e+02
0.00000000e+00
1.03978449e+03
9.73292881e+02
0.00000000e+00
1.27616701e+03
1.56453609e+03
1.65713108e+03
1.73814432e+03
0.00000000e+00
0.00000000e+00
0.00000000e+00
0.00000000e+00
0.00000000e+00
0.00000000e+00
9.83105606e+02
1.21724316e+03
1.24540416e+03
0.00000000e+00
1.01423052e+03
0.00000000e+00
1.14040782e+03
9.93960662e+02
8.59515790e+02
0.00000000e+00
1.04257349e+03
1.43765767e+03
1.54315556e+03
1.66483107e+03
0.00000000e+00
1.41050616e+03
1.48940436e+03
0.00000000e+00
0.00000000e+00
6.90954707e+02
0.00000000e+00
1.10699628e+03
1.43433687e+03
1.48572196e+03
1.20912906e+03
1.37100121e+03
1.23557223e+03
0.00000000e+00
9.22597281e+02
0.00000000e+00
0.00000000e+00
8.89298522e+02
0.00000000e+00
1.42311528e+03
1.41149095e+03
1.31209420e+03
1.44209717e+03
1.44881746e+03
0.00000000e+00
8.59003900e+02
6.84745057e+02
6.45814455e+02
7.10918201e+02
0.00000000e+00
0.00000000e+00
0.00000000e+00
7.69141914e+02
7.82306208e+02
1.02911141e+03
8.64801708e+02
0.00000000e+00
1.22228077e+03
1.05467060e+03
1.31174954e+03
0.00000000e+00
9.77817960e+02
8.85157304e+02
9.71031874e+02
1.31961852e+03
0.00000000e+00
2.25667730e+03
1.25048930e+03
1.41517131e+03
1.14495300e+03
1.27218986e+03
9.93333904e+02
9.52666051e+02
7.44617161e+02
1.02070513e+03
1.75894753e+03
1.41406693e+03
2.02134400e+03
1.86689707e+03
1.50769365e+03
1.39462488e+03
1.33952034e+03
1.16941128e+03
1.51619593e+03
1.31938651e+03
1.21972893e+03
0.00000000e+00
1.34058709e+03
1.33038808e+03
1.25241454e+03
2.26130228e+03
2.16314934e+03
1.23043975e+03
0.00000000e+00
0.00000000e+00
7.04926353e+02
0.00000000e+00
0.00000000e+00
0.00000000e+00
8.95343847e+02
1.92359070e+03
1.13346900e+03
1.43948647e+03
1.09049842e+03
1.13789631e+03
1.17844254e+03
1.12167520e+03
1.33343422e+03
1.12955715e+03
1.48559600e+03
2.06193346e+03
1.93092435e+03
2.31055212e+03
1.06905063e+03
7.63984613e+02
2.13326466e+03
1.96511823e+03
1.78141501e+03
1.19537814e+03
1.12496878e+03
1.20757116e+03
9.34554373e+02
1.18373018e+03
1.49428960e+03
1.31035850e+03
1.38866287e+03
1.38161958e+03
0.00000000e+00
1.51599047e+03
1.17043212e+03
2.10589790e+03
1.23573337e+03
2.03536274e+03
1.42321950e+03
1.56860909e+03
9.38835741e+02
6.64060806e+02
1.14852286e+03
1.44273161e+03
2.13083643e+03
2.08159348e+03
2.13534064e+03
1.90964103e+03
1.64294599e+03
1.34337324e+03
1.24129861e+03
1.57866266e+03
9.58825638e+02
1.10432282e+03
1.61339796e+03
1.81074066e+03
1.09985529e+03
1.07098073e+03
1.55522510e+03
0.00000000e+00
1.64676889e+03
1.04813696e+03
6.95358804e+02
7.70019006e+02
1.60585776e+03
1.10008125e+03
1.47159576e+03
9.83647715e+02
1.82451246e+03
1.09389819e+03
1.76468683e+03
1.33178688e+03
1.13692498e+03
1.32096696e+03
1.05835731e+03
1.50204560e+03
1.27308833e+03
1.09599278e+03
1.28331444e+03
1.62746910e+03
1.18261718e+03
9.55123517e+02
1.11213755e+03
6.87779622e+02
1.81434660e+03
9.18569317e+02
1.49461150e+03
2.06897333e+03
1.27463637e+03
1.01782948e+03
1.62489615e+03
1.42875589e+03
1.14708343e+03
1.11848015e+03
1.19098119e+03
8.69174804e+02
1.34213433e+03
9.42626383e+02
9.33658571e+02
1.21270346e+03
1.20233842e+03
1.32559085e+03
7.23729856e+02
1.45601815e+03
1.13654960e+03
1.16406157e+03
1.27975685e+03
1.40096271e+03
1.95098528e+03
1.42246256e+03
1.30121487e+03
1.86122631e+03
1.41670687e+03
1.46607704e+03
0.00000000e+00
1.22252735e+03
0.00000000e+00
0.00000000e+00
1.13324457e+03
9.45172431e+02
2.30155672e+03
2.22925172e+03
1.10677420e+03
1.04615999e+03
1.38070970e+03
1.74179868e+03
2.21384754e+03
1.62330444e+03
1.86180403e+03
2.07916539e+03
1.44472947e+03
1.03545548e+03
1.13827773e+03
2.15741255e+03
1.92872410e+03
1.22486554e+03
1.45486738e+03
0.00000000e+00
1.22279360e+03
1.41566057e+03
7.22358751e+02
9.92457547e+02
1.14010871e+03
8.43482797e+02
7.86107680e+02
7.73768217e+02
1.37883478e+03
8.00004025e+02
8.78138177e+02
1.02943675e+03
1.79409997e+03
1.25024271e+03
1.07545930e+03
1.23675279e+03
1.24628020e+03
1.59617132e+03
1.09168241e+03
1.06435196e+03
5.59841815e+02
0.00000000e+00
9.16051134e+02
8.72227889e+02
1.10250159e+03
1.02952030e+03
9.39819869e+02
9.01613825e+02
1.10234519e+03
1.11334784e+03
1.41996638e+03
1.37492948e+03
1.52234310e+03
2.27109522e+03
1.60287259e+03
1.23665204e+03
1.26093021e+03
1.68647336e+03
2.11951084e+03
1.21228319e+03
1.48774283e+03
0.00000000e+00
1.04933160e+03
1.01141121e+03
1.03312493e+03
7.47064465e+02
8.55534108e+02
8.93877112e+02
7.93386532e+02
8.94486751e+02
1.95650610e+03
1.19458258e+03
1.80474781e+03
1.44541245e+03
1.51514503e+03
1.35955068e+03
1.50509578e+03
1.44889486e+03
1.45164738e+03
1.68975416e+03
1.11545252e+03
1.23128527e+03
6.90919056e+02
1.06165257e+03
8.39286190e+02
0.00000000e+00
1.06810789e+03
1.55963177e+03
8.42187394e+02
1.23822220e+03
1.60282731e+03
2.22727394e+03
1.25307179e+03
1.36642366e+03
1.71900690e+03
2.24356830e+03
1.93369730e+03
1.37403304e+03
1.55130248e+03
1.63954207e+03
1.86364781e+03
1.16922343e+03
1.64311097e+03
7.36149113e+02
0.00000000e+00
6.02040262e+02
0.00000000e+00
1.09505671e+03
7.34455811e+02
9.05491748e+02
9.37583980e+02
1.09928805e+03
1.61782368e+03
9.28275171e+02
1.11883718e+03
1.22243223e+03
1.35207838e+03
1.18485813e+03
1.36497188e+03
1.63740598e+03
1.52682451e+03
1.68429723e+03
9.55949209e+02
1.44895139e+03
0.00000000e+00
0.00000000e+00
4.01462165e+02
8.19366636e+02
6.97040929e+02
1.07754454e+03
8.32427656e+02
1.55124728e+03
1.76903285e+03
1.07107255e+03
1.04525478e+03
1.44259348e+03
1.17849996e+03
1.29270580e+03
1.33299366e+03
1.45210931e+03
1.58764114e+03
1.71200552e+03
1.68871420e+03
1.68843058e+03
1.58921762e+03
0.00000000e+00
0.00000000e+00
9.35348579e+02
5.32163328e+02
6.10127883e+02
1.16163629e+03
6.64212169e+02
1.36967998e+03
1.08060390e+03
8.34738925e+02
9.56927207e+02
1.12156347e+03
1.48152698e+03
1.13694291e+03
1.26860941e+03
1.17669445e+03
1.17476301e+03
1.57756534e+03
1.64431677e+03
1.61261767e+03
1.58585439e+03
1.19830219e+03
0.00000000e+00
1.16780411e+03
1.61540472e+03
1.02652906e+03
1.73006405e+03
1.42345802e+03
1.54232898e+03
1.02708682e+03
1.47853101e+03
1.12218493e+03
1.10694556e+03
1.13096930e+03
1.50342362e+03
1.40491987e+03
1.63302488e+03
1.42445479e+03
1.98587706e+03
1.67629614e+03
1.80557478e+03
1.48696714e+03
1.15593765e+03
0.00000000e+00
8.98033918e+02
1.08248983e+03
1.35105124e+03
1.34992850e+03
1.54358725e+03
1.38635404e+03
1.25654429e+03
1.51247349e+03
1.24595735e+03
1.37470565e+03
1.14461862e+03
1.79142535e+03
1.58544841e+03
1.43745993e+03
1.39518401e+03
1.45012023e+03
1.56999602e+03
1.55155270e+03
1.39528805e+03
1.16495863e+03
0.00000000e+00
1.07566627e+03
1.09621222e+03
1.31587743e+03
1.51363911e+03
1.47413577e+03
1.52031010e+03
0.00000000e+00
9.65395041e+02
0.00000000e+00
9.41358076e+02
9.24104322e+02
0.00000000e+00
0.00000000e+00
1.29697981e+03
1.36158826e+03
1.51352409e+03
1.23223615e+03
1.31197234e+03
1.50781298e+03
1.34837852e+03
0.00000000e+00
1.46043608e+03
9.88875166e+02
1.27897408e+03
1.29881876e+03
1.51484976e+03
1.47358744e+03
1.45612130e+03
1.43853590e+03
1.13318130e+03
1.52657672e+03
1.34273911e+03
1.75490809e+03
9.88538499e+02
1.10193950e+03
1.06616275e+03
1.12773413e+03
1.34202002e+03
1.48771642e+03
1.86163568e+03
1.49428998e+03
0.00000000e+00
0.00000000e+00
7.10543831e+02
0.00000000e+00
0.00000000e+00
1.27273972e+03
1.46835807e+03
1.42557461e+03
1.46765656e+03
1.34583103e+03
9.94376038e+02
1.05660912e+03
0.00000000e+00
0.00000000e+00
0.00000000e+00
0.00000000e+00
1.05398820e+03
1.22244306e+03
0.00000000e+00
0.00000000e+00
1.54451870e+03
1.28903450e+03
0.00000000e+00
0.00000000e+00
0.00000000e+00
9.69041165e+02
0.00000000e+00
6.16730920e+02
0.00000000e+00
7.79075194e+02
9.39083317e+02
7.84687851e+02
1.10700071e+03
1.07741480e+03
0.00000000e+00
1.19704065e+03
0.00000000e+00
1.21304125e+03
8.24631333e+02
1.14763491e+03
1.36720306e+03
1.05193020e+03
7.01242622e+02
2.11099605e+03
1.34406589e+03
1.21681421e+03
2.11193256e+03
1.10253529e+03
9.36134339e+02
7.55854682e+02
9.89602117e+02
6.99614698e+02
7.20935903e+02
1.05239805e+03
7.61615777e+02
0.00000000e+00
1.26718585e+03
1.37666199e+03
1.57799868e+03
1.25772459e+03
1.16187678e+03
1.11428584e+03
1.46354739e+03
1.53871738e+03
1.22484759e+03
1.45387451e+03
1.92511649e+03
2.32063954e+03
1.96075074e+03
1.97377441e+03
9.30562677e+02
1.82160186e+03
1.69054893e+03
2.14654255e+03
1.88632610e+03
1.94619718e+03
1.51860733e+03
1.46921107e+03
1.51941532e+03
1.95794721e+03
1.61379488e+03
1.67892272e+03
1.27728259e+03
1.28202078e+03
1.46886038e+03
1.17863619e+03
1.85500993e+03
1.95862055e+03
1.54202201e+03
2.03584900e+03
1.85667459e+03
2.02944980e+03
1.79583268e+03
7.03955776e+02
6.75834789e+02
1.07628999e+03
1.16801624e+03
2.06222180e+03
2.00170021e+03
1.79853979e+03
1.72314860e+03
1.63173331e+03
1.85492418e+03
2.00775059e+03
1.24777286e+03
1.53133826e+03
1.84714039e+03
2.42429928e+03
2.23961593e+03
1.80870435e+03
1.94447660e+03
1.90899941e+03
9.99356835e+02
1.96093468e+03
1.50213361e+03
1.84793527e+03
2.19474225e+03
1.81411147e+03
1.78655534e+03
2.06934064e+03
1.17199862e+03
1.72961479e+03
1.88390062e+03
1.67114199e+03
1.79607780e+03
1.20484088e+03
1.39978570e+03
1.52514395e+03
2.37758623e+03
1.49880350e+03
1.42815278e+03
1.39813929e+03
1.76060482e+03
1.79909089e+03
1.89694975e+03
1.77169721e+03
1.94109253e+03
1.33796783e+03
1.99109694e+03
2.03294978e+03
1.67746800e+03
1.68654085e+03
1.58527059e+03
2.05707329e+03
1.93131617e+03
2.17427364e+03
0.00000000e+00
1.35161054e+03
1.53061852e+03
2.44377710e+03
2.32401528e+03
1.23622904e+03
2.18956159e+03
1.16664047e+03
1.57508854e+03
1.20389670e+03
1.48302553e+03
1.89682855e+03
2.13662875e+03
1.64123853e+03
1.07948402e+03
1.42529538e+03
2.16347448e+03
1.17088403e+03
1.74638842e+03
1.98063413e+03
1.29751866e+03
7.61491840e+02
1.37330466e+03
0.00000000e+00
1.58868635e+03
2.05468218e+03
1.49319551e+03
1.58668511e+03
9.59417645e+02
2.30172265e+03
2.28219751e+03
1.83073260e+03
1.48167379e+03
1.66446302e+03
1.58393833e+03
1.74819713e+03
1.80302415e+03
1.35554785e+03
1.98745652e+03
1.99460689e+03
1.88001757e+03
0.00000000e+00
0.00000000e+00
1.22730197e+03
1.12212215e+03
2.43308597e+03
1.19608701e+03
1.68767000e+03
1.66482945e+03
2.20707905e+03
2.31753971e+03
1.32791092e+03
1.49980206e+03
1.02497775e+03
1.33253483e+03
2.11269156e+03
2.17037139e+03
2.00968743e+03
1.92555150e+03
2.19882312e+03
1.61408399e+03
2.23163637e+03
0.00000000e+00
0.00000000e+00
1.08041369e+03
0.00000000e+00
2.04517981e+03
9.34952937e+02
1.88762073e+03
2.07454168e+03
1.94687939e+03
2.45944615e+03
2.15407238e+03
1.18252939e+03
2.33067154e+03
2.09475888e+03
1.40325968e+03
2.19526337e+03
1.55189627e+03
2.08966306e+03
1.60553174e+03
1.46950228e+03
2.09840421e+03
0.00000000e+00
0.00000000e+00
1.17301221e+03
1.15987434e+03
1.34151458e+03
9.04654072e+02
1.68740267e+03
1.10763635e+03
1.12218550e+03
1.22674925e+03
2.33968441e+03
2.24996745e+03
1.78259068e+03
2.22093684e+03
1.94416786e+03
1.81978828e+03
1.65211004e+03
1.27788758e+03
1.67588821e+03
1.23120794e+03
2.19998896e+03
0.00000000e+00
0.00000000e+00
1.14167580e+03
1.13811773e+03
2.15918379e+03
7.24327425e+02
1.06059812e+03
2.39608384e+03
1.20291120e+03
2.26824358e+03
2.05699510e+03
2.07672081e+03
1.80526787e+03
1.32496090e+03
1.99407452e+03
2.29579971e+03
1.55621810e+03
1.68044689e+03
1.41660681e+03
1.61315499e+03
2.00714371e+03
7.56553864e+02
9.62626672e+02
1.03694274e+03
1.13873054e+03
2.36106929e+03
6.14079782e+02
2.34902836e+03
2.42483164e+03
2.29812897e+03
2.01130311e+03
2.35231260e+03
1.88944528e+03
1.53239320e+03
1.88354764e+03
2.05901774e+03
1.77698144e+03
2.17774922e+03
1.90243481e+03
2.08469917e+03
1.72634415e+03
2.24899819e+03
0.00000000e+00
1.12919390e+03
1.03360177e+03
1.16520820e+03
1.89080416e+03
1.17178085e+03
1.89601529e+03
1.21978444e+03
1.16753695e+03
2.02196196e+03
1.56059361e+03
1.66332043e+03
2.28808506e+03
2.00645789e+03
2.12737651e+03
1.51081985e+03
1.38702865e+03
1.54659539e+03
1.93966170e+03
1.71013319e+03
1.62059160e+03
8.36818790e+02
9.42231073e+02
8.99286515e+02
8.84912820e+02
1.47420346e+03
1.12488548e+03
1.49784080e+03
1.49185389e+03
1.37445317e+03
1.09238030e+03
1.83335194e+03
1.37917191e+03
1.52325352e+03
1.71376835e+03
2.27195219e+03
1.32325179e+03
1.77392701e+03
2.08405761e+03
2.04638150e+03
1.66676973e+03
1.82330439e+03
1.56399850e+03
1.11864108e+03
7.70797312e+02
1.20098298e+03
1.84993987e+03
1.48211232e+03
2.38860793e+03
1.97679541e+03
1.77554460e+03
1.25142404e+03
2.05521141e+03
1.92031587e+03
2.17973673e+03
2.28651510e+03
2.04410387e+03
1.35940115e+03
1.59080122e+03
2.21775619e+03
2.34503391e+03
1.56934003e+03
1.62102623e+03
1.52526415e+03
0.00000000e+00
0.00000000e+00
1.47498128e+03
2.47940712e+03
1.74127534e+03
1.90463539e+03
2.24585144e+03
2.48190788e+03
1.38016590e+03
1.72333492e+03
1.70144587e+03
2.35497266e+03
1.51829357e+03
2.42423648e+03
1.33339233e+03
2.11606915e+03
2.28248086e+03
2.33665694e+03
1.73694092e+03
2.37527666e+03
1.56661715e+03
0.00000000e+00
0.00000000e+00
6.91883600e+02
1.20596614e+03
1.39344566e+03
1.97864604e+03
1.70885672e+03
1.66790649e+03
1.56474988e+03
1.47309989e+03
1.33356264e+03
1.28905127e+03
1.05757131e+03
1.16459886e+03
1.33262055e+03
1.57949317e+03
1.82466115e+03
2.01026934e+03
1.71619860e+03
1.66119573e+03
1.40612573e+03
0.00000000e+00
0.00000000e+00
1.20849548e+03
1.82277493e+03
1.66641504e+03
1.42506938e+03
1.97966395e+03
1.45924813e+03
1.70572719e+03
2.27246238e+03
2.07351548e+03
2.09274395e+03
1.86534556e+03
2.39954936e+03
1.36949449e+03
1.65615806e+03
1.90439673e+03
2.07493132e+03
1.68854130e+03
2.24374137e+03
1.52801942e+03
1.38640639e+03
0.00000000e+00
1.11881788e+03
1.08598109e+03
1.24020061e+03
1.39739642e+03
1.43213852e+03
1.29873340e+03
1.31344873e+03
1.19896926e+03
1.28978814e+03
0.00000000e+00
9.18238275e+02
0.00000000e+00
0.00000000e+00
1.39897258e+03
1.36762793e+03
1.53174855e+03
1.41945911e+03
1.67625901e+03
1.32177338e+03
1.42801885e+03
0.00000000e+00
0.00000000e+00
8.01168471e+02
9.50653285e+02
0.00000000e+00
1.47236016e+03
1.16826731e+03
1.52984359e+03
1.36528867e+03
1.21635480e+03
1.22696359e+03
0.00000000e+00
0.00000000e+00
7.51407479e+02
0.00000000e+00
0.00000000e+00
0.00000000e+00
1.24908797e+03
1.08081224e+03
1.24637994e+03
1.40085139e+03
0.00000000e+00
1.11465604e+03
0.00000000e+00
1.66439389e+03
8.60452875e+02
1.06134758e+03