# vtk DataFile Version 3.0
MPS 3D Simulation Step 4900
ASCII
DATASET UNSTRUCTURED_GRID
POINTS 20213 double
-1.08736071e-03 3.32390110e-04 -9.61297323e-04
-9.85564893e-04 2.14394441e-04 -1.01094756e-03
-8.83402599e-04 2.39673870e-04 -1.10469695e-03
-8.32641342e-04 2.89043994e-04 -1.16401692e-03
-7.67784209e-04 1.44413072e-04 -1.13358463e-03
-7.15041938e-04 3.56831146e-04 -1.25750157e-03
-5.78725450e-04 1.96848274e-04 -1.27171045e-03
-4.49434147e-04 2.48257861e-04 -1.34206288e-03
-2.96166390e-04 1.62008981e-04 -1.33954557e-03
-3.45274555e-04 7.02544355e-04 -1.16467611e-03
-1.17259512e-04 6.21101762e-04 -1.35640587e-03
-2.15098346e-04 5.88357758e-04 -1.35019669e-03
-4.30638411e-05 2.60102293e-04 -1.32638979e-03
9.64426117e-05 1.44266157e-04 -1.38574892e-03
2.20250508e-04 1.18070091e-04 -1.33660389e-03
5.48146629e-04 1.26315043e-04 -1.23450766e-03
4.24913556e-04 4.89471370e-04 -1.17814592e-03
6.48229766e-04 1.26800766e-04 -1.19099076e-03
7.56781812e-04 3.27035256e-04 -1.10260744e-03
9.58290491e-04 4.86429577e-04 -9.95677285e-04
1.04436186e-03 2.42451686e-04 -8.08336259e-04
-1.02864856e-03 2.91707753e-04 -1.00612211e-03
-9.58624979e-04 2.70019145e-04 -1.05930176e-03
-9.11279576e-04 3.18541401e-04 -1.11389406e-03
-7.76506383e-04 3.33494880e-04 -1.21540200e-03
-7.56918737e-04 5.19921020e-04 -1.24340175e-03
-8.10491641e-04 4.09899811e-04 -1.20638161e-03
-6.60767585e-04 4.10684877e-04 -1.29502543e-03
-4.53976153e-04 3.23208473e-04 -1.36696123e-03
-2.33521616e-04 1.99294890e-04 -1.37740330e-03
-1.75593649e-04 1.52720391e-04 -1.35453239e-03
4.52568043e-05 1.96945189e-04 -1.41495156e-03
1.72253252e-04 1.65640866e-04 -1.38972024e-03
2.99056375e-04 2.55419907e-04 -1.39953957e-03
3.69432007e-04 2.91723118e-04 -1.39454188e-03
3.73299677e-04 2.14230590e-04 -1.36490068e-03
4.83373661e-04 1.59367136e-04 -1.29956937e-03
5.51461446e-04 1.95333207e-04 -1.28862360e-03
5.64229175e-04 1.57690638e-04 -1.14780234e-03
6.25273676e-04 1.86216320e-04 -1.24484073e-03
8.00924564e-04 1.97438525e-04 -1.15176771e-03
9.75354568e-04 1.59031030e-04 -9.83823176e-04
-9.87511763e-04 3.47679723e-04 -1.05922231e-03
-9.39533832e-04 3.97183697e-04 -1.10789767e-03
-9.74833518e-04 5.59464775e-04 -1.09266163e-03
-7.59220547e-04 2.56516754e-04 -1.20316492e-03
-8.61462583e-04 3.63141274e-04 -1.16393733e-03
-7.45708413e-04 4.34839919e-04 -1.24778213e-03
-5.30156740e-04 2.94890635e-04 -1.32532644e-03
-6.02519281e-04 2.66795712e-04 -1.28932011e-03
-3.22901414e-04 3.39087412e-04 -1.41202853e-03
-1.88448516e-04 2.51800075e-04 -1.41146680e-03
-5.00873780e-05 4.12618507e-04 -1.47218220e-03
1.30376938e-04 2.25358989e-04 -1.42114573e-03
1.97428579e-04 3.71965669e-04 -1.44721638e-03
4.44273719e-04 2.93329365e-04 -1.37262156e-03
3.08277320e-04 1.65916163e-04 -1.35293139e-03
5.11360304e-04 3.34989797e-04 -1.35971532e-03
6.08122696e-04 2.56968070e-04 -1.28949009e-03
5.25909503e-04 2.61464791e-04 -1.33143513e-03
7.66767026e-04 2.50207690e-04 -1.19948444e-03
8.66564465e-04 1.85016014e-04 -1.09472324e-03
8.88965473e-04 1.30304801e-04 -1.02961754e-03
-1.11409463e-03 4.11781214e-04 -9.43826869e-04
-1.00245986e-03 4.36454332e-04 -1.06160283e-03
-9.52824981e-04 4.83127377e-04 -1.11053740e-03
-8.21880644e-04 4.92132509e-04 -1.20168908e-03
-6.83583599e-04 4.86771603e-04 -1.28729592e-03
-6.40244137e-04 3.33085396e-04 -1.29228222e-03
-5.71055101e-04 3.67369830e-04 -1.32888614e-03
-2.61758831e-04 2.89741340e-04 -1.40965206e-03
-1.84029943e-04 3.27653458e-04 -1.44007294e-03
-1.23202270e-04 2.05870276e-04 -1.40030783e-03
2.80185854e-05 4.34349873e-04 -1.47030779e-03
1.88343429e-06 1.28995563e-04 -1.37274239e-03
6.46833479e-05 2.75296580e-04 -1.44456681e-03
1.38690871e-04 3.13330529e-04 -1.44739605e-03
3.35987771e-04 3.60293750e-04 -1.41698536e-03
4.56577725e-04 2.19402267e-04 -1.34272891e-03
5.61309788e-04 4.12968546e-04 -1.34980934e-03
8.20833404e-04 3.19364901e-04 -1.19212633e-03
8.52250342e-04 2.56443916e-04 -1.14900356e-03
9.20319098e-04 2.56630801e-04 -1.09775074e-03
1.00217693e-03 2.57672971e-04 -1.02806811e-03
-1.12714187e-03 5.06353418e-04 -9.32067376e-04
-9.13047509e-04 6.05580151e-04 -1.13541223e-03
-8.84559851e-04 4.44127834e-04 -1.15693796e-03
-6.97078540e-04 5.73308662e-04 -1.27692358e-03
-5.17308328e-04 4.69358087e-04 -1.36708712e-03
-5.89550482e-04 4.46630870e-04 -1.33095960e-03
-2.47667910e-04 3.79044298e-04 -1.43955820e-03
-1.79469415e-04 4.28354474e-04 -1.45989606e-03
-1.20600512e-04 3.70590232e-04 -1.46079612e-03
-2.61607747e-05 5.03364940e-04 -1.47277178e-03
4.99746310e-05 5.33850921e-04 -1.46706843e-03
-3.69710488e-05 3.33650423e-04 -1.46139198e-03
1.05212687e-04 4.71362920e-04 -1.46475832e-03
2.94793334e-04 4.99669246e-04 -1.43434882e-03
1.15908668e-04 3.89570495e-04 -1.46225402e-03
4.19138362e-04 3.75141757e-04 -1.39693477e-03
4.86706099e-04 4.09840577e-04 -1.37988830e-03
6.86649147e-04 2.52653834e-04 -1.24574546e-03
8.99810219e-04 3.22967389e-04 -1.13996707e-03
9.71912798e-04 3.23942676e-04 -1.08267040e-03
9.42774031e-04 3.93779121e-04 -1.12500077e-03
-1.13891144e-03 5.95002274e-04 -9.19993232e-04
-1.02831061e-03 5.16854453e-04 -1.04467484e-03
-8.50932493e-04 6.52255502e-04 -1.17015710e-03
-8.93790627e-04 5.29023772e-04 -1.15505321e-03
-6.18472850e-04 5.19419879e-04 -1.32032420e-03
-4.41217481e-04 4.47848618e-04 -1.39721054e-03
-3.98197650e-04 3.78157559e-04 -1.39846222e-03
-3.22881870e-04 4.19456682e-04 -1.42974177e-03
-1.07825811e-04 4.69870303e-04 -1.47077320e-03
-1.76469929e-04 5.20658352e-04 -1.46440879e-03
-9.59565662e-05 5.56413724e-04 -1.46866558e-03
4.01434043e-05 3.49592809e-04 -1.46133472e-03
2.73167184e-04 4.17961063e-04 -1.43586511e-03
3.60305081e-04 4.42288443e-04 -1.41776872e-03
2.03279946e-04 2.63518639e-04 -1.42326474e-03
3.83342153e-04 6.08073613e-04 -1.40846788e-03
4.36359225e-04 4.77307018e-04 -1.39798502e-03
5.87324990e-04 3.32625018e-04 -1.32518040e-03
7.43848972e-04 3.21254897e-04 -1.23949867e-03
8.68493514e-04 3.89775264e-04 -1.18117761e-03
1.04774877e-03 4.77647651e-04 -1.04645472e-03
-1.08634070e-03 5.57801329e-04 -9.84001127e-04
-1.07323347e-03 4.68594912e-04 -9.94418537e-04
-9.15112397e-04 6.88930419e-04 -1.11676679e-03
-7.69060977e-04 6.02620391e-04 -1.23007811e-03
-6.27801719e-04 5.98587202e-04 -1.31095568e-03
-4.64567323e-04 5.31578764e-04 -1.38976557e-03
-3.75558644e-04 4.81284142e-04 -1.42228891e-03
-2.48791315e-04 4.71239905e-04 -1.45142674e-03
-3.10383084e-04 5.18617097e-04 -1.44068012e-03
-2.45818251e-04 5.67337517e-04 -1.45120090e-03
-1.56565799e-05 5.92293660e-04 -1.46633091e-03
1.36920287e-04 5.50844327e-04 -1.45668413e-03
1.89654716e-04 4.56776700e-04 -1.45217091e-03
2.18629076e-04 5.33172897e-04 -1.44896835e-03
3.02189068e-04 5.84232310e-04 -1.42893104e-03
5.98711423e-04 4.82102691e-04 -1.33558392e-03
5.59987729e-04 5.56166631e-04 -1.34998151e-03
6.64621828e-04 3.24421012e-04 -1.28370412e-03
6.40461259e-04 4.02709139e-04 -1.31056294e-03
9.78379907e-04 4.72653495e-04 -1.10464788e-03
9.43538372e-04 5.41683471e-04 -1.13499925e-03
-1.14593182e-03 6.78144999e-04 -9.00698861e-04
-1.03696050e-03 6.02296563e-04 -1.03502546e-03
-9.79363526e-04 6.41434225e-04 -1.07996642e-03
-8.34069163e-04 5.76422236e-04 -1.19170443e-03
-5.46865822e-04 5.46396685e-04 -1.35311929e-03
-3.94166134e-04 5.63065726e-04 -1.41521250e-03
-4.12364539e-04 6.44697943e-04 -1.39876112e-03
-3.26767857e-04 6.07122554e-04 -1.42823327e-03
-2.54128690e-04 6.48752959e-04 -1.43725384e-03
-1.67200430e-04 6.09228184e-04 -1.45813404e-03
-8.62202989e-05 6.41568696e-04 -1.45936367e-03
7.19410913e-05 6.18906085e-04 -1.45912179e-03
1.51287234e-04 6.41619536e-04 -1.44946625e-03
2.24406414e-04 6.12039116e-04 -1.44293650e-03
3.21922349e-04 6.65393444e-04 -1.41629136e-03
5.13896626e-04 4.94265448e-04 -1.37060869e-03
4.61345291e-04 5.65208241e-04 -1.38595228e-03
6.42896292e-04 5.56014889e-04 -1.31325577e-03
7.17058783e-04 3.98214796e-04 -1.26958576e-03
9.05680095e-04 4.66988912e-04 -1.15947610e-03
9.05351727e-04 6.20507909e-04 -1.16250276e-03
-1.09179816e-03 6.45440473e-04 -9.70658058e-04
-1.03859296e-03 6.83480864e-04 -1.01988266e-03
-9.78900215e-04 7.24462541e-04 -1.06173380e-03
-6.34248945e-04 6.77404903e-04 -1.29698086e-03
-5.57097618e-04 6.29302336e-04 -1.34145484e-03
-4.81982332e-04 6.07632297e-04 -1.37891300e-03
-4.18800911e-04 7.27238370e-04 -1.37685400e-03
-3.40212506e-04 6.87973109e-04 -1.40936361e-03
-2.68577937e-04 7.28919251e-04 -1.41331251e-03
-1.82090506e-04 6.87505377e-04 -1.44070191e-03
-1.06279745e-04 7.16360663e-04 -1.44308586e-03
-1.02025071e-06 6.73609381e-04 -1.45501490e-03
8.42582551e-05 7.01452533e-04 -1.44525406e-03
1.70437244e-04 7.21170915e-04 -1.43332043e-03
2.46521801e-04 6.88663914e-04 -1.42854513e-03
4.39717036e-04 6.54247521e-04 -1.38551297e-03
4.42101965e-04 7.68235437e-04 -1.36105232e-03
5.19733052e-04 6.26450850e-04 -1.35896424e-03
6.78282249e-04 4.77077729e-04 -1.29513115e-03
7.96083571e-04 3.90653245e-04 -1.22552241e-03
8.72450343e-04 5.45194827e-04 -1.18761811e-03
-1.09550459e-03 7.24360772e-04 -9.50013779e-04
-9.78765440e-04 8.07444700e-04 -1.03043366e-03
-8.52243722e-04 7.33331330e-04 -1.14990630e-03
-7.06584272e-04 6.53794714e-04 -1.26218608e-03
-6.39882732e-04 7.56607716e-04 -1.27965804e-03
-4.91476906e-04 6.88030418e-04 -1.36043069e-03
-4.96344862e-04 7.71881044e-04 -1.34049010e-03
-3.46228132e-04 7.72150277e-04 -1.38234477e-03
-2.70690637e-04 8.11988044e-04 -1.38444088e-03
-1.92039690e-04 7.66816054e-04 -1.41457124e-03
-1.12199319e-04 7.93999110e-04 -1.41603498e-03
-3.17249045e-05 7.44718787e-04 -1.43841803e-03
4.44051038e-05 7.66891802e-04 -1.43267704e-03
1.25620618e-04 7.89674731e-04 -1.41932218e-03
2.22043497e-04 7.82889981e-04 -1.40827833e-03
3.81203321e-04 7.17407386e-04 -1.39098931e-03
5.30444405e-04 7.84602883e-04 -1.32474956e-03
4.91937887e-04 7.09531650e-04 -1.35816597e-03
7.21774338e-04 5.52486128e-04 -1.27453077e-03
8.34568376e-04 4.65626952e-04 -1.20927327e-03
8.71911611e-04 6.98770964e-04 -1.17503527e-03
-1.03890202e-03 7.62216778e-04 -9.96398326e-04
-9.80635511e-04 8.81341658e-04 -9.92108563e-04
[...]
POINT_DATA 20213
SCALARS pressure double 1
LOOKUP_TABLE default
5.74004807e+02
5.51197593e+02
0.00000000e+00
0.00000000e+00
0.00000000e+00
1.14492771e+03
9.10769100e+02
1.04723421e+03
0.00000000e+00
1.38026145e+03
1.03179393e+03
9.84753756e+02
9.28066710e+02
0.00000000e+00
0.00000000e+00
1.11099950e+03
1.29131979e+03
1.11345007e+03
1.40446338e+03
1.17915331e+03
1.12474130e+03
0.00000000e+00
0.00000000e+00
0.00000000e+00
0.00000000e+00
9.23549737e+02
0.00000000e+00
1.13456056e+03
0.00000000e+00
0.00000000e+00
0.00000000e+00
0.00000000e+00
0.00000000e+00
0.00000000e+00
0.00000000e+00
9.11990026e+02
1.10499265e+03
1.28021624e+03
1.24841669e+03
1.35415152e+03
1.17679782e+03
1.09260946e+03
0.00000000e+00
0.00000000e+00
0.00000000e+00
0.00000000e+00
0.00000000e+00
9.71466803e+02
1.13338675e+03
1.11336767e+03
0.00000000e+00
6.88507850e+02
0.00000000e+00
0.00000000e+00
0.00000000e+00
9.99559362e+02
0.00000000e+00
1.19087648e+03
1.31097344e+03
1.23239495e+03
1.31117443e+03
1.15826499e+03
1.04050472e+03
0.00000000e+00
0.00000000e+00
0.00000000e+00
0.00000000e+00
1.05107427e+03
1.23276832e+03
0.00000000e+00
6.95696030e+02
0.00000000e+00
6.79602427e+02
1.06330044e+03
5.95790851e+02
8.38742573e+02
7.95943519e+02
1.00810004e+03
0.00000000e+00
0.00000000e+00
1.24244760e+03
0.00000000e+00
1.06580934e+03
1.13387756e+03
0.00000000e+00
0.00000000e+00
0.00000000e+00
1.02305731e+03
0.00000000e+00
1.12016542e+03
7.27132773e+02
7.60396221e+02
0.00000000e+00
0.00000000e+00
1.17796800e+03
0.00000000e+00
1.18312310e+03
1.28542785e+03
0.00000000e+00
1.04465415e+03
0.00000000e+00
1.36151108e+03
0.00000000e+00
0.00000000e+00
0.00000000e+00
0.00000000e+00
0.00000000e+00
9.73202797e+02
0.00000000e+00
1.03493898e+03
0.00000000e+00
0.00000000e+00
0.00000000e+00
0.00000000e+00
0.00000000e+00
9.04637515e+02
9.71591000e+02
1.08037578e+03
1.14493735e+03
0.00000000e+00
9.51613399e+02
0.00000000e+00
0.00000000e+00
1.37470455e+03
0.00000000e+00
0.00000000e+00
0.00000000e+00
0.00000000e+00
7.86083075e+02
0.00000000e+00
0.00000000e+00
9.57863059e+02
0.00000000e+00
8.08175577e+02
8.51832757e+02
7.72830825e+02
1.22743293e+03
1.27079047e+03
0.00000000e+00
1.21546588e+03
1.19280399e+03
1.04849410e+03
8.80173877e+02
0.00000000e+00
1.26741805e+03
0.00000000e+00
1.44187318e+03
5.77942577e+02
0.00000000e+00
0.00000000e+00
0.00000000e+00
0.00000000e+00
0.00000000e+00
0.00000000e+00
0.00000000e+00
8.49363466e+02
0.00000000e+00
9.46045712e+02
1.29061927e+03
1.22407739e+03
1.18618600e+03
0.00000000e+00
1.00431509e+03
0.00000000e+00
0.00000000e+00
1.33923934e+03
1.27551020e+03
1.50345542e+03
7.86570766e+02
8.17842305e+02
0.00000000e+00
1.26813148e+03
0.00000000e+00
1.06351790e+03
1.08116133e+03
0.00000000e+00
0.00000000e+00
6.66364035e+02
0.00000000e+00
1.21613901e+03
1.20049327e+03
1.09081961e+03
1.09233217e+03
0.00000000e+00
0.00000000e+00
0.00000000e+00
1.23436400e+03
1.37858982e+03
1.50962451e+03
8.91716388e+02
0.00000000e+00
1.14707082e+03
1.22224458e+03
1.35656922e+03
1.20860782e+03
1.33457333e+03
8.10547990e+02
0.00000000e+00
0.00000000e+00
6.51151483e+02
9.78084124e+02
0.00000000e+00
0.00000000e+00
9.25880742e+02
0.00000000e+00
0.00000000e+00
0.00000000e+00
1.32263666e+03
1.37510315e+03
1.39595152e+03
8.03516392e+02
0.00000000e+00
1.27969761e+03
0.00000000e+00
1.27695848e+03
1.53083555e+03
1.14344435e+03
0.00000000e+00
0.00000000e+00
0.00000000e+00
7.21409651e+02
0.00000000e+00
0.00000000e+00
7.02907320e+02
0.00000000e+00
8.40702756e+02
0.00000000e+00
0.00000000e+00
0.00000000e+00
1.19694219e+03
1.48464168e+03
6.46947911e+02
7.60688646e+02
0.00000000e+00
1.22746746e+03
1.40872229e+03
1.52755686e+03
1.50281488e+03
1.32613355e+03
1.08897477e+03
0.00000000e+00
0.00000000e+00
0.00000000e+00
0.00000000e+00
8.21633346e+02
0.00000000e+00
5.68542939e+02
0.00000000e+00
0.00000000e+00
0.00000000e+00
1.03397090e+03
0.00000000e+00
0.00000000e+00
0.00000000e+00
1.22772652e+03
1.38483154e+03
1.48550656e+03
0.00000000e+00
0.00000000e+00
1.41235903e+03
1.30682714e+03
0.00000000e+00
0.00000000e+00
0.00000000e+00
7.45671024e+02
0.00000000e+00
8.07941539e+02
0.00000000e+00
0.00000000e+00
6.37609117e+02
0.00000000e+00
0.00000000e+00
0.00000000e+00
1.04341118e+03
9.45813437e+02
1.05249914e+03
1.42730406e+03
1.50030703e+03
1.53963249e+03
0.00000000e+00
1.53273363e+03
0.00000000e+00
0.00000000e+00
0.00000000e+00
5.65052769e+02
1.01672073e+03
1.00153790e+03
9.37093184e+02
0.00000000e+00
0.00000000e+00
0.00000000e+00
0.00000000e+00
0.00000000e+00
0.00000000e+00
7.50623416e+02
0.00000000e+00
1.26097906e+03
1.36007609e+03
1.48170171e+03
1.44744137e+03
1.50545306e+03
1.37042335e+03
0.00000000e+00
6.84281889e+02
0.00000000e+00
5.23579119e+02
0.00000000e+00
9.85602972e+02
9.75805505e+02
7.65392697e+02
0.00000000e+00
0.00000000e+00
0.00000000e+00
8.82043832e+02
1.05698893e+03
6.86009723e+02
7.40792296e+02
1.12363072e+03
1.02762990e+03
1.31933062e+03
1.46710597e+03
0.00000000e+00
1.47256145e+03
1.01291959e+03
0.00000000e+00
0.00000000e+00
0.00000000e+00
0.00000000e+00
1.05485758e+03
9.15915455e+02
1.04497816e+03
6.50257996e+02
7.24285677e+02
0.00000000e+00
0.00000000e+00
9.61685466e+02
0.00000000e+00
0.00000000e+00
8.07496805e+02
0.00000000e+00
1.33444247e+03
1.59864762e+03
1.51996220e+03
1.20499367e+03
0.00000000e+00
0.00000000e+00
0.00000000e+00
0.00000000e+00
0.00000000e+00
8.11986394e+02
9.86390872e+02
0.00000000e+00
0.00000000e+00
0.00000000e+00
7.65137640e+02
9.07735192e+02
1.00596043e+03
0.00000000e+00
0.00000000e+00
0.00000000e+00
0.00000000e+00
0.00000000e+00
1.82971431e+03
1.70869633e+03
1.48879992e+03
1.51667581e+03
1.08906173e+03
0.00000000e+00
0.00000000e+00
0.00000000e+00
8.10770943e+02
7.74803525e+02
0.00000000e+00
6.50246133e+02
0.00000000e+00
7.91661380e+02
9.62634992e+02
9.74655119e+02
0.00000000e+00
0.00000000e+00
0.00000000e+00
1.10472510e+03
1.37331844e+03
1.63634575e+03
1.69767165e+03
1.69412567e+03
1.70148008e+03
0.00000000e+00
0.00000000e+00
0.00000000e+00
0.00000000e+00
0.00000000e+00
0.00000000e+00
5.60713180e+02
0.00000000e+00
8.02073529e+02
9.80938065e+02
9.62179590e+02
0.00000000e+00
0.00000000e+00
0.00000000e+00
0.00000000e+00
0.00000000e+00
1.62011089e+03
1.31719315e+03
1.35610145e+03
1.32795122e+03
0.00000000e+00
0.00000000e+00
0.00000000e+00
6.62612787e+02
7.42918352e+02
0.00000000e+00
0.00000000e+00
0.00000000e+00
0.00000000e+00
8.11548246e+02
9.62996441e+02
0.00000000e+00
0.00000000e+00
0.00000000e+00
0.00000000e+00
0.00000000e+00
0.00000000e+00
0.00000000e+00
1.27858781e+03
1.09674070e+03
0.00000000e+00
1.08548065e+03
0.00000000e+00
9.77709747e+02
7.45012950e+02
7.35386450e+02
0.00000000e+00
0.00000000e+00
0.00000000e+00
8.53464185e+02
8.95895792e+02
0.00000000e+00
0.00000000e+00
0.00000000e+00
5.71473936e+02
0.00000000e+00
7.02195035e+02
0.00000000e+00
0.00000000e+00
7.50090204e+02
7.72772764e+02
1.01706519e+03
0.00000000e+00
1.50156690e+03
1.49314515e+03
1.20708187e+03
8.98912090e+02
8.54258901e+02
9.89534144e+02
1.25199047e+03
1.29150136e+03
1.29091082e+03
1.31484113e+03
9.50643872e+02
1.11874146e+03
7.42019987e+02
1.30068460e+03
8.60890999e+02
1.76522665e+03
1.39057508e+03
1.36687470e+03
1.62980775e+03
1.30038306e+03
1.29852592e+03
1.56772919e+03
1.93800378e+03
2.08233860e+03
7.17613798e+02
2.01256499e+03
1.63125164e+03
1.03697233e+03
1.09233155e+03
8.77648311e+02
1.35586977e+03
1.17426074e+03
8.53837495e+02
0.00000000e+00
1.12367613e+03
1.23711220e+03
1.47694612e+03
6.93770711e+02
1.90999742e+03
1.64765359e+03
8.78880750e+02
0.00000000e+00
5.81217070e+02
7.86165810e+02
0.00000000e+00
7.50149783e+02
0.00000000e+00
1.84779484e+03
9.69685735e+02
1.15473453e+03
1.06375393e+03
1.36680369e+03
1.19364875e+03
1.15853281e+03
5.97076529e+02
8.80895087e+02
2.16286490e+03
1.53861583e+03
9.22350204e+02
2.14029043e+03
1.60289738e+03
1.21641381e+03
4.59466395e+02
1.66802740e+03
8.21624788e+02
1.45031117e+03
1.11700448e+03
1.43027374e+03
1.10656827e+03
1.05878121e+03
1.27305654e+03
1.19528481e+03
1.09064846e+03
1.28817101e+03
0.00000000e+00
0.00000000e+00
1.16730953e+03
1.13912820e+03
1.54735071e+03
2.22003600e+03
1.89614472e+03
1.00316892e+03
9.07928720e+02
7.82030637e+02
1.46313098e+03
1.71844910e+03
1.94049731e+03
5.91921330e+02
1.57659424e+03
8.99333364e+02
1.65701147e+03
8.36062182e+02
1.17083004e+03
1.35687578e+03
1.17994159e+03
0.00000000e+00
0.00000000e+00
2.21071486e+03
1.04379015e+03
1.32846747e+03
2.12522924e+03
9.72849986e+02
2.06360419e+03
1.54620589e+03
1.07070880e+03
7.56320892e+02
1.90454633e+03
8.87322918e+02
1.32093974e+03
1.23723253e+03
8.41942880e+02
1.06419968e+03
1.00907323e+03
1.05888159e+03
9.30671834e+02
1.29887516e+03
0.00000000e+00
5.52424152e+02
1.52620977e+03
1.28959775e+03
1.47309213e+03
1.49244046e+03
1.48976412e+03
1.64634098e+03
1.43600827e+03
1.39703653e+03
1.92863209e+03
7.01177402e+02
1.36208786e+03
1.87847823e+03
1.09626881e+03
1.11296162e+03
1.25848126e+03
1.16679681e+03
8.51184900e+02
8.37140529e+02
1.04029862e+03
1.14730282e+03
6.40379451e+02
8.71127899e+02
9.68038450e+02
1.47154367e+03
1.56734953e+03
1.71033405e+03
1.37035535e+03
1.99474413e+03
1.89662447e+03
1.60132229e+03
1.28259600e+03
1.06055893e+03
1.85104980e+03
1.08185496e+03
1.43910620e+03
1.51258519e+03
1.08667654e+03
1.05189663e+03
1.42377861e+03
1.10482791e+03
1.53807488e+03
0.00000000e+00
1.90266183e+03
0.00000000e+00
0.00000000e+00
2.08655542e+03
1.58324084e+03
1.61350121e+03
1.86685257e+03
1.08710035e+03
1.20843243e+03
1.00071980e+03
2.03475407e+03
1.75599095e+03
1.17164595e+03
1.01633028e+03
8.79325009e+02
1.88112102e+03
1.94980004e+03
1.43851494e+03
1.25141929e+03
1.57246327e+03
0.00000000e+00
2.02898210e+03
1.03170804e+03
1.35858488e+03
1.56446703e+03
1.53185073e+03
1.04409107e+03
9.96346684e+02
1.72941986e+03
1.11194073e+03
1.27511075e+03
1.07687001e+03
1.86423300e+03
7.92982559e+02
1.06792477e+03
9.58233938e+02
9.58273321e+02
1.24893830e+03
0.00000000e+00
1.08316190e+03
1.22968428e+03
0.00000000e+00
1.52687755e+03
1.07429260e+03
1.52895502e+03
1.54409283e+03
1.63885325e+03
1.65287110e+03
1.32298151e+03
1.55202935e+03
1.53796578e+03
1.11305589e+03
1.66672358e+03
9.44113038e+02
1.62094133e+03
9.06969788e+02
8.83000936e+02
1.48458563e+03
1.99663540e+03
0.00000000e+00
1.36295176e+03
1.25017201e+03
0.00000000e+00
1.08281007e+03
0.00000000e+00
8.32469929e+02
1.06891087e+03
1.65377756e+03
1.35170127e+03
8.31175606e+02
2.10680584e+03
1.50459115e+03
2.03983755e+03
1.33116834e+03
1.36832846e+03
8.73545715e+02
1.35427437e+03
8.72113822e+02
9.83484903e+02
1.10447586e+03
0.00000000e+00
8.93882897e+02
0.00000000e+00
5.86790460e+02
1.56784104e+03
0.00000000e+00
1.43891892e+03
1.80995583e+03
1.31440545e+03
1.42147051e+03
1.88968231e+03
2.00816599e+03
1.18920900e+03
1.39588335e+03
1.92537600e+03
1.24401030e+03
1.98041247e+03
8.47257971e+02
1.16916500e+03
1.17421451e+03
1.96510304e+03
0.00000000e+00
1.58548699e+03
0.00000000e+00
0.00000000e+00
6.41251371e+02
0.00000000e+00
1.50177355e+03
1.18041282e+03
1.53334900e+03
1.52488733e+03
1.43325778e+03
1.84624832e+03
1.16894063e+03
1.17244067e+03
8.88329775e+02
1.21828447e+03
7.07962116e+02
8.76065211e+02
1.21335035e+03
1.12841355e+03
1.38216347e+03
0.00000000e+00
1.12878059e+03
0.00000000e+00
6.76337681e+02
6.04362348e+02
6.76171430e+02
1.18386463e+03
1.42392376e+03
1.46793074e+03
1.88707511e+03
2.11511415e+03
1.57712761e+03
9.80912939e+02
1.78310329e+03
9.02534691e+02
7.95691961e+02
7.60542095e+02
1.13057687e+03
1.33417706e+03
1.78254195e+03
1.05422694e+03
1.16990249e+03
1.04261426e+03
0.00000000e+00
0.00000000e+00
1.03102138e+03
1.08574233e+03
8.88222412e+02
1.24532445e+03
0.00000000e+00
1.38868429e+03
1.31864674e+03
1.46806876e+03
1.27717762e+03
1.28829239e+03
1.44810594e+03
1.18861008e+03
9.36444989e+02
8.84378465e+02
0.00000000e+00
1.59796074e+03
1.13868450e+03
1.29866588e+03
1.04959162e+03
0.00000000e+00
6.36338302e+02
1.53474206e+03
1.62914398e+03
8.30925844e+02
2.17135109e+03
1.29086299e+03
1.39184500e+03
1.43470524e+03
1.50079242e+03
1.15656514e+03
9.34298003e+02
9.43241293e+02
1.38790113e+03
1.21740493e+03
1.96953658e+03
1.14461226e+03
1.94286433e+03
1.24569189e+03
1.65459648e+03
9.33945866e+02
0.00000000e+00
0.00000000e+00
1.06240441e+03
7.47383080e+02
1.21130683e+03
1.09997486e+03
1.75750944e+03
1.41084766e+03
1.27671560e+03
1.44236119e+03
1.00215030e+03
1.34153631e+03
9.99169977e+02
1.98430817e+03
1.71506861e+03
1.15606804e+03
9.60289364e+02
1.14307035e+03
1.38943205e+03
1.04727215e+03
9.49924320e+02
0.00000000e+00
7.98392247e+02
1.23283232e+03
8.61829416e+02
9.44249388e+02
1.52523775e+03
1.28721190e+03
1.10721652e+03
1.02794916e+03
0.00000000e+00
0.00000000e+00
0.00000000e+00
0.00000000e+00
6.69472902e+02
0.00000000e+00
9.44724240e+02
1.19901472e+03
1.17094468e+03
9.37835524e+02
9.11789721e+02
1.33410768e+03
0.00000000e+00
0.00000000e+00
1.79498435e+03
9.39164408e+02
1.56080618e+03
1.07855740e+03
1.45326338e+03
1.33382960e+03
1.29856716e+03
1.30100143e+03
1.11678127e+03
1.63814458e+03
1.24337618e+03
1.83061645e+03
1.01438574e+03
9.23864434e+02
9.45973221e+02
8.25122310e+02
1.20502352e+03
1.12236282e+03
1.86713734e+03
0.00000000e+00
5.91134612e+02
0.00000000e+00
0.00000000e+00
0.00000000e+00
0.00000000e+00
9.08718364e+02
1.37544195e+03
1.09016659e+03
1.15899666e+03
1.22157351e+03
9.41588112e+02
0.00000000e+00
0.00000000e+00
0.00000000e+00
0.00000000e+00
0.00000000e+00
7.49207743e+02
8.54898568e+02
8.36468337e+02
0.00000000e+00
0.00000000e+00
6.25529502e+02
0.00000000e+00
0.00000000e+00
0.00000000e+00
1.16171727e+03
6.14214047e+02
6.78565073e+02
9.42594487e+02
8.84829558e+02
1.44018753e+03
1.57399896e+03
1.39666531e+03
1.01703368e+03
7.06389274e+02
7.96110055e+02
1.01944307e+03
9.59577997e+02
1.23787606e+03
0.00000000e+00
0.00000000e+00
0.00000000e+00
5.00367661e+02
1.05535850e+03
1.02996780e+03
7.38361559e+02
1.03940705e+03
9.99683395e+02
1.57299247e+03
1.43182601e+03
1.85971903e+03
0.00000000e+00
8.65468368e+02
1.11595565e+03
1.07241616e+03
0.00000000e+00
9.34195568e+02
1.13412187e+03
1.83313209e+03
1.40548310e+03
1.33367783e+03
1.00360748e+03
1.09278739e+03
6.33912576e+02
1.06385039e+03
2.09841535e+03
1.87120915e+03
2.22388044e+03
1.02940856e+03
2.14779583e+03
1.50836294e+03
2.05580629e+03
8.08434996e+02
9.94700311e+02
1.63102125e+03
1.59466444e+03
1.23652307e+03
1.25027335e+03
1.57612274e+03
1.44836767e+03
8.82527315e+02
9.45281615e+02
1.12601393e+03
0.00000000e+00
0.00000000e+00
8.97759379e+02
1.21350521e+03
9.91275192e+02
1.23510168e+03
6.40503677e+02
1.22736393e+03
9.64918694e+02
1.88107287e+03
1.11109725e+03
9.25530550e+02
1.53797427e+03
1.31220878e+03
8.87645530e+02
9.90232522e+02
8.04018716e+02
1.36090702e+03
1.46759976e+03
1.07052987e+03
2.12581149e+03
0.00000000e+00
0.00000000e+00
1.35797878e+03
1.70517675e+03
9.19137204e+02
1.69628522e+03
2.09777953e+03
1.04333060e+03
1.48089286e+03
6.18115349e+02
1.25462621e+03
7.31339937e+02
9.35902815e+02
9.94902459e+02
1.05099775e+03
1.46058940e+03
1.25816830e+03
1.13183902e+03
1.16186005e+03
1.79988295e+03
1.67433699e+03
1.01427135e+03
0.00000000e+00
1.45646176e+03
1.96764439e+03
1.44611136e+03
1.96888487e+03
1.87028759e+03
1.03499518e+03
8.97725789e+02
1.35321755e+03
1.05406825e+03
7.68209789e+02
1.97357331e+03
1.58652398e+03
8.13918516e+02
9.25027261e+02
1.69045471e+03
1.58761260e+03
1.72972898e+03
1.71207372e+03
9.44633218e+02
0.00000000e+00
5.87476663e+02
1.47555642e+03
2.29690737e+03
8.84286746e+02
1.93233859e+03
1.09557237e+03
1.54587487e+03
1.58704378e+03
1.78364906e+03
2.05412638e+03
1.26874450e+03
5.18721922e+02
1.26116363e+03
8.94134222e+02
1.44162512e+03
1.87447810e+03
1.63699820e+03
1.75012938e+03
2.01853094e+03
1.23782888e+03
1.24057931e+03
0.00000000e+00
0.00000000e+00
2.21064538e+03
1.99885966e+03
1.83861977e+03
1.84620387e+03
1.61298798e+03
1.50829505e+03
5.52094034e+02
1.09978031e+03
1.93230213e+03
1.35364532e+03
9.20476990e+02
1.98775164e+03
1.82351166e+03
1.08841586e+03
1.73259962e+03
1.89880167e+03
1.78825477e+03
0.00000000e+00
0.00000000e+00
0.00000000e+00
0.00000000e+00
1.18847863e+03
1.08910400e+03
2.07010939e+03
9.07695042e+02
2.17183998e+03
7.65430911e+02
1.81519478e+03
1.65357304e+03
1.79273799e+03
9.21688513e+02
1.34474711e+03
1.74579983e+03
1.88435359e+03
9.47686422e+02
2.00874712e+03
1.52774475e+03
2.01476097e+03
1.46294986e+03
9.68071912e+02
0.00000000e+00
0.00000000e+00
2.13544615e+03
1.10511151e+03
2.19901337e+03
2.25937025e+03
1.97180798e+03
1.37865918e+03
0.00000000e+00
1.80090959e+03
5.74132922e+02
1.75571364e+03
1.12802427e+03
9.26142882e+02
1.34363032e+03
1.68590012e+03
1.33108010e+03
1.25072168e+03
1.90530960e+03
1.19913136e+03
1.20132014e+03
0.00000000e+00
0.00000000e+00
1.50789554e+03
7.78986693e+02
1.88244176e+03
1.63312894e+03
1.64388276e+03
1.62875080e+03
2.14832229e+03
2.07424776e+03
1.09375227e+03
2.04565053e+03
6.52983353e+02
1.89063205e+03
1.67576517e+03
1.45701307e+03
1.07945366e+03
1.20273786e+03
1.36507420e+03
1.26308488e+03
1.19152094e+03
0.00000000e+00
0.00000000e+00
2.31189022e+03
1.23137225e+03
1.81614419e+03
1.35259115e+03
1.61289973e+03
0.00000000e+00
2.14382194e+03
1.84127418e+03
1.49862860e+03
1.45865170e+03
5.55823357e+02
1.77411401e+03
1.14156640e+03
1.42289852e+03
1.13976237e+03
1.33008356e+03
2.11223730e+03
1.12208315e+03
1.08247707e+03
0.00000000e+00
0.00000000e+00
2.41801388e+03
9.93434144e+02
2.14182654e+03
1.98702225e+03
2.20414874e+03
2.15766295e+03
1.85487452e+03
2.06117394e+03
1.62313071e+03
2.11097878e+03
8.11504002e+02
1.64943961e+03
1.16982355e+03
2.07798690e+03
2.06399539e+03
1.24684432e+03
2.16428158e+03
0.00000000e+00
1.16548071e+03
0.00000000e+00
0.00000000e+00
2.29040563e+03
1.19853032e+03
2.25251420e+03
1.61054661e+03
1.65363646e+03
2.03081810e+03
1.47915155e+03
1.80250528e+03
3.95968432e+02
2.03261865e+03
1.94020536e+03
1.85274753e+03
9.22126320e+02
1.13161896e+03
1.99268730e+03
1.52256386e+03
1.19878419e+03
0.00000000e+00
0.00000000e+00
0.00000000e+00
1.95623542e+03
1.82998775e+03
1.50552928e+03
2.11258952e+03
1.86191405e+03
1.53385827e+03
1.50272402e+03
1.99333737e+03
1.72697579e+03
1.46344290e+03
1.77090382e+03
1.63309384e+03
8.84392687e+02
1.91645735e+03
1.99298893e+03
8.09652498e+02
1.35420657e+03
1.77773926e+03
9.01854442e+02
1.05708372e+03
0.00000000e+00
1.39342414e+03
2.11177125e+03
1.96437348e+03
2.27103215e+03
2.23676759e+03
2.14438950e+03
1.55539887e+03
2.04728592e+03
1.71837274e+03
5.43960632e+02
1.82788247e+03
2.05309457e+03
1.40607364e+03
1.63772851e+03
1.90650707e+03
1.92587138e+03
1.54397054e+03
1.31651789e+03
9.37218201e+02
0.00000000e+00
8.47681379e+02
1.97722444e+03
1.80688102e+03
2.18341779e+03
2.36783593e+03
2.40156618e+03
1.62013810e+03
1.36053853e+03
1.74572383e+03
1.99342458e+03
1.90156289e+03
1.42509966e+03
1.54251015e+03
1.19859947e+03
2.08300247e+03
1.25292702e+03
2.12882758e+03
1.79012707e+03
2.28850053e+03
1.19572196e+03
0.00000000e+00
9.59091966e+02
6.30309303e+02
1.01166740e+03
1.25912984e+03
2.43670287e+03
1.97544669e+03
2.08480327e+03
1.76090950e+03
1.22154096e+03
1.25707133e+03
1.14256220e+03
9.75434989e+02
9.18627411e+02
1.22472461e+03
1.48911096e+03
1.96083704e+03
1.98386502e+03
1.71704059e+03
1.47247526e+03
1.15686374e+03
0.00000000e+00
0.00000000e+00
1.18996949e+03
1.87069835e+03
1.92364602e+03
1.56344961e+03
2.27246215e+03
1.43900948e+03
1.77587707e+03
2.14047906e+03
2.13735614e+03
2.20339922e+03
2.08441301e+03
1.82037347e+03
1.44016401e+03
1.45499834e+03
1.82800383e+03
1.99167998e+03
2.01922844e+03
2.10430788e+03
1.15847247e+03
0.00000000e+00
8.84754204e+02
1.22048375e+03
9.11182622e+02
1.53814202e+03
1.80274551e+03
1.79627718e+03
1.48111957e+03
1.15453085e+03
1.14819049e+03
0.00000000e+00
9.36761720e+02
0.00000000e+00
7.87877138e+02
0.00000000e+00
1.09406366e+03
7.44539046e+02
1.39183127e+03
8.55162846e+02
1.83623437e+03
9.49944971e+02
0.00000000e+00
1.03850436e+03
0.00000000e+00
0.00000000e+00
0.00000000e+00
0.00000000e+00
0.00000000e+00
8.76344740e+02
1.22444180e+03
0.00000000e+00
1.16869126e+03
0.00000000e+00
0.00000000e+00
0.00000000e+00
0.00000000e+00
7.82978099e+02
0.00000000e+00
0.00000000e+00
7.85108296e+02
0.00000000e+00
0.00000000e+00
0.00000000e+00
0.00000000e+00
7.77556509e+02
0.00000000e+00
1.89883049e+03
1.23181129e+03
1.34969507e+03