# vtk DataFile Version 3.0
MPS 3D Simulation Step 6300
ASCII
DATASET UNSTRUCTURED_GRID
POINTS 20213 double
-1.07834903e-03 3.71901234e-04 -8.54229769e-04
-9.86189271e-04 2.22175471e-04 -8.82655233e-04
-8.70180659e-04 3.15512714e-04 -1.04287213e-03
-8.34312041e-04 3.67172052e-04 -1.08819788e-03
-7.74558150e-04 1.80637913e-04 -1.05121146e-03
-7.84278181e-04 4.13636645e-04 -1.13667947e-03
-5.98707178e-04 2.51573288e-04 -1.19890372e-03
-4.57513177e-04 2.70397767e-04 -1.27002915e-03
-4.17110332e-04 1.21023394e-04 -1.21134012e-03
-3.53620969e-04 7.95501817e-04 -1.15389348e-03
-1.40184582e-04 8.32336076e-04 -1.26101206e-03
-2.19636889e-04 7.60680193e-04 -1.27852009e-03
-1.16731874e-04 5.74142430e-04 -1.25701737e-03
-4.87951465e-05 1.84143195e-04 -1.31004544e-03
2.16149077e-05 1.53497269e-04 -1.29121008e-03
4.89425282e-04 1.39033469e-04 -1.17859377e-03
2.85779056e-04 6.71237507e-04 -9.14137510e-04
5.67744191e-04 1.40128150e-04 -1.14631160e-03
6.02135952e-04 5.16488071e-04 -1.02830133e-03
8.10496393e-04 6.42592040e-04 -9.07099897e-04
1.02461334e-03 3.92090940e-04 -7.64864919e-04
-1.03601513e-03 2.88927491e-04 -8.66215414e-04
-9.70155146e-04 2.88834092e-04 -9.37364600e-04
-9.37461034e-04 3.45038535e-04 -9.94804220e-04
-8.50621458e-04 4.60259178e-04 -1.09659544e-03
-7.91701862e-04 5.80772790e-04 -1.16012817e-03
-9.09257462e-04 5.08932044e-04 -1.06134954e-03
-7.30603282e-04 4.56806121e-04 -1.18165906e-03
-5.23830544e-04 4.10296796e-04 -1.28333825e-03
-3.56936559e-04 2.09392595e-04 -1.28298014e-03
-3.40625791e-04 1.33543706e-04 -1.24581831e-03
-4.86564619e-05 2.58326796e-04 -1.34412756e-03
1.04976541e-04 2.02467360e-04 -1.31021144e-03
1.66588864e-04 3.41928041e-04 -1.36034584e-03
2.57637077e-04 3.20237106e-04 -1.33755043e-03
2.67383157e-04 2.41363886e-04 -1.30365201e-03
4.06915692e-04 1.51899885e-04 -1.21268706e-03
4.25431937e-04 2.22207920e-04 -1.25260322e-03
5.37511185e-04 5.19780139e-04 -1.17164282e-03
4.96045123e-04 2.09660964e-04 -1.22028165e-03
6.34070430e-04 2.01286889e-04 -1.14425079e-03
8.27652706e-04 1.21008826e-04 -9.48187380e-04
-1.02145794e-03 3.48404781e-04 -9.17344267e-04
-9.87726957e-04 4.01679002e-04 -9.67407495e-04
-1.00016324e-03 6.16647265e-04 -9.87411422e-04
-7.71361729e-04 3.21623315e-04 -1.11737487e-03
-8.99324647e-04 4.05654328e-04 -1.04510564e-03
-7.94606111e-04 5.00241803e-04 -1.14879774e-03
-5.44078318e-04 3.20049649e-04 -1.24837054e-03
-6.22042547e-04 3.29252350e-04 -1.21205534e-03
-3.93215213e-04 3.63406388e-04 -1.32080196e-03
-2.88276912e-04 2.36094430e-04 -1.30947063e-03
-8.64992554e-05 4.24469112e-04 -1.38655265e-03
2.71679693e-05 2.24442512e-04 -1.32898367e-03
1.42557147e-04 4.26072721e-04 -1.38077611e-03
3.37502942e-04 3.20931194e-04 -1.31771386e-03
2.59204634e-04 1.73073228e-04 -1.26492872e-03
4.02606018e-04 3.73414243e-04 -1.31237934e-03
5.05077084e-04 2.88068299e-04 -1.24887873e-03
4.24515678e-04 2.97921546e-04 -1.28249626e-03
6.60434148e-04 2.72254121e-04 -1.16393178e-03
7.72232476e-04 2.10866426e-04 -1.06210507e-03
7.85808598e-04 1.50732838e-04 -1.00996863e-03
-1.11198125e-03 4.49832247e-04 -8.36263944e-04
-1.01339352e-03 4.90346012e-04 -9.61922445e-04
-9.73041230e-04 5.46058218e-04 -1.01038579e-03
-8.54101308e-04 5.52401332e-04 -1.11086574e-03
-7.23185157e-04 5.39700051e-04 -1.20194868e-03
-6.67525546e-04 4.06846884e-04 -1.21050505e-03
-5.94786083e-04 4.02717123e-04 -1.24891896e-03
-3.10194740e-04 3.13524958e-04 -1.32953439e-03
-2.37861500e-04 3.65979054e-04 -1.35680166e-03
-2.70047436e-04 1.63907304e-04 -1.28067359e-03
-1.95196411e-05 4.72051670e-04 -1.39561714e-03
-1.28267155e-04 1.66704408e-04 -1.29848856e-03
-6.97334429e-06 3.84689984e-04 -1.38252387e-03
1.68393042e-05 3.07320241e-04 -1.36172074e-03
2.28319199e-04 3.97746983e-04 -1.36383077e-03
3.48504993e-04 2.49757548e-04 -1.28874589e-03
4.57809438e-04 4.43782228e-04 -1.30694238e-03
7.17535009e-04 3.35787247e-04 -1.15793643e-03
7.32524534e-04 2.61388286e-04 -1.11574582e-03
8.25338539e-04 2.74411552e-04 -1.05936403e-03
8.97777786e-04 2.77989487e-04 -1.00741332e-03
-1.13596347e-03 5.34674680e-04 -8.24805017e-04
-9.48993511e-04 6.64803255e-04 -1.03339593e-03
-9.52322666e-04 4.57479944e-04 -1.01419624e-03
-7.33846059e-04 6.23660415e-04 -1.20163490e-03
-5.83034120e-04 5.62411294e-04 -1.28408390e-03
-6.62795350e-04 4.91786195e-04 -1.23084180e-03
-3.15643567e-04 3.96743066e-04 -1.34818291e-03
-2.28113054e-04 4.46122139e-04 -1.37261793e-03
-1.57545875e-04 3.91453173e-04 -1.37401749e-03
-8.21510099e-05 5.27093094e-04 -1.39682593e-03
-6.67321283e-06 5.69631744e-04 -1.40169978e-03
-1.49266673e-04 3.13737322e-04 -1.35700708e-03
5.35274593e-05 5.12564706e-04 -1.40020846e-03
2.90432945e-04 5.74610100e-04 -1.36751266e-03
6.33455763e-05 4.31258371e-04 -1.38919613e-03
3.09593111e-04 3.94733906e-04 -1.34419324e-03
3.73449750e-04 4.49840761e-04 -1.33562229e-03
5.83169050e-04 2.78004258e-04 -1.20909809e-03
7.89886783e-04 3.27131009e-04 -1.10859500e-03
8.70880795e-04 3.43266440e-04 -1.05626739e-03
8.36487223e-04 4.01988158e-04 -1.09783302e-03
-1.14212360e-03 6.36853557e-04 -8.25357381e-04
-1.04257291e-03 5.63013404e-04 -9.40776510e-04
-8.92721864e-04 7.08647808e-04 -1.07580592e-03
-9.23449937e-04 5.92984307e-04 -1.05880113e-03
-6.57836735e-04 5.80242217e-04 -1.24485528e-03
-5.17884782e-04 4.95997698e-04 -1.30366145e-03
-4.50578708e-04 4.34704489e-04 -1.31762537e-03
-3.74952455e-04 4.52068417e-04 -1.34368937e-03
-1.54201679e-04 4.83186628e-04 -1.38751140e-03
-2.29336375e-04 5.37383249e-04 -1.38173002e-03
-1.55243921e-04 5.74684403e-04 -1.39299205e-03
-7.35152536e-05 3.33540185e-04 -1.36892868e-03
2.08003661e-04 4.75826682e-04 -1.37848646e-03
2.87050578e-04 4.77750377e-04 -1.36064935e-03
1.01804210e-04 2.73274845e-04 -1.34414724e-03
2.99158015e-04 7.24112676e-04 -1.35750745e-03
3.53567561e-04 5.32257414e-04 -1.34833152e-03
4.84682097e-04 3.65326006e-04 -1.28224002e-03
6.41924642e-04 3.45832522e-04 -1.20284494e-03
7.68838187e-04 4.08611827e-04 -1.14553745e-03
9.56391158e-04 4.79251503e-04 -1.00939912e-03
-1.09856048e-03 5.92129832e-04 -8.79717312e-04
-1.08116470e-03 5.07842291e-04 -8.90097767e-04
-9.53963933e-04 7.46454992e-04 -1.01181332e-03
-8.08550595e-04 6.62232839e-04 -1.14969321e-03
-6.75015606e-04 6.65204010e-04 -1.23742516e-03
-5.09265452e-04 5.78529192e-04 -1.31955225e-03
-4.44232614e-04 5.21172953e-04 -1.33451149e-03
-2.99111262e-04 4.87182070e-04 -1.36477478e-03
-3.68551693e-04 5.38462268e-04 -1.35747507e-03
-3.01062506e-04 5.85324282e-04 -1.37442380e-03
-8.22052683e-05 6.17256200e-04 -1.40164823e-03
7.86529764e-05 5.94930217e-04 -1.40128023e-03
1.33006195e-04 5.19283155e-04 -1.39140990e-03
2.16133718e-04 5.54487241e-04 -1.38299902e-03
2.34050399e-04 6.48696665e-04 -1.37771354e-03
5.17475449e-04 5.09934435e-04 -1.29380300e-03
4.83597058e-04 5.85902568e-04 -1.31174724e-03
5.64516450e-04 3.52927733e-04 -1.24545737e-03
5.41474484e-04 4.30706903e-04 -1.27299365e-03
8.79662495e-04 4.78171375e-04 -1.07771128e-03
8.59128449e-04 5.55308797e-04 -1.10346166e-03
-1.13807002e-03 7.34978867e-04 -8.07849574e-04
-1.05588895e-03 6.48496159e-04 -9.25018006e-04
-1.00806205e-03 6.99982583e-04 -9.69813757e-04
-8.69079743e-04 6.36923167e-04 -1.10392805e-03
-6.01799347e-04 6.39834811e-04 -1.27951482e-03
-4.37050205e-04 6.07392871e-04 -1.34505595e-03
-4.59407222e-04 6.85195966e-04 -1.33606644e-03
-3.67652645e-04 6.35793566e-04 -1.36499490e-03
-2.93445150e-04 6.80331671e-04 -1.37938721e-03
-2.25683302e-04 6.26916358e-04 -1.38760211e-03
-1.46768358e-04 6.71637966e-04 -1.39851559e-03
-4.82851090e-06 6.54333654e-04 -1.40595706e-03
7.12980567e-05 6.77235370e-04 -1.40210278e-03
1.58983157e-04 6.12789545e-04 -1.39354361e-03
2.17995060e-04 7.31070049e-04 -1.37667218e-03
4.32391095e-04 5.23374524e-04 -1.32439656e-03
3.95332340e-04 6.09714281e-04 -1.33648930e-03
5.71908298e-04 5.76022559e-04 -1.27837754e-03
6.20528613e-04 4.23100915e-04 -1.23300140e-03
8.11146042e-04 4.83198527e-04 -1.13093757e-03
8.38248617e-04 6.38424754e-04 -1.12272860e-03
-1.10085547e-03 6.92991671e-04 -8.70124664e-04
-1.05331280e-03 7.46572531e-04 -9.10353892e-04
-9.99003942e-04 7.94270675e-04 -9.49773967e-04
-6.87611262e-04 7.45983191e-04 -1.22319941e-03
-6.11522215e-04 7.20582073e-04 -1.26843437e-03
-5.30862885e-04 6.56879488e-04 -1.31098334e-03
-4.63770016e-04 7.67195397e-04 -1.32415999e-03
-3.84830514e-04 7.15790149e-04 -1.35621204e-03
-3.13727980e-04 7.56451024e-04 -1.36841305e-03
-2.14077873e-04 7.16545978e-04 -1.38803400e-03
-1.39284192e-04 7.55655159e-04 -1.39181910e-03
-6.57989769e-05 7.09157030e-04 -1.40080096e-03
1.57846098e-05 7.45099355e-04 -1.39775003e-03
1.00664782e-04 7.64346414e-04 -1.38905513e-03
1.47713072e-04 6.95699650e-04 -1.39189319e-03
3.83208913e-04 7.04534406e-04 -1.33628479e-03
4.20508340e-04 8.19699640e-04 -1.30992526e-03
4.64078497e-04 6.61518909e-04 -1.31817202e-03
5.97101479e-04 5.00014975e-04 -1.25972627e-03
6.97334177e-04 4.14997529e-04 -1.18972352e-03
7.92545504e-04 5.68213498e-04 -1.15278667e-03
-1.09126186e-03 7.91019046e-04 -8.50059346e-04
-9.81537090e-04 8.78870003e-04 -9.39870653e-04
-8.89460978e-04 7.87453783e-04 -1.06299995e-03
-7.52330273e-04 7.07439024e-04 -1.18769235e-03
-7.03025809e-04 8.21120324e-04 -1.19917384e-03
-5.37445446e-04 7.37285933e-04 -1.30103636e-03
-5.47311737e-04 8.16478744e-04 -1.28105240e-03
-3.88484330e-04 8.01951779e-04 -1.34008228e-03
-3.15548191e-04 8.39786200e-04 -1.34945673e-03
-2.40997384e-04 7.92930845e-04 -1.37567761e-03
-1.67838689e-04 8.28230320e-04 -1.37439810e-03
-6.18522995e-05 7.92300869e-04 -1.38870817e-03
1.10977113e-05 8.27299882e-04 -1.38087676e-03
8.89750273e-05 8.45167222e-04 -1.37318541e-03
1.78789405e-04 7.99739662e-04 -1.37123557e-03
3.48528890e-04 7.90597088e-04 -1.33418872e-03
5.03563555e-04 8.11932231e-04 -1.28357623e-03
4.49624628e-04 7.46199861e-04 -1.31495631e-03
6.46470341e-04 5.76007305e-04 -1.24200155e-03
7.42871874e-04 4.93195595e-04 -1.17670505e-03
8.13703199e-04 7.16943896e-04 -1.13416771e-03
-1.03990303e-03 8.43143953e-04 -8.90575776e-04
-9.73530699e-04 9.56170378e-04 -9.11772448e-04
[...]
POINT_DATA 20213
SCALARS pressure double 1
LOOKUP_TABLE default
8.64855524e+02
0.00000000e+00
1.01890567e+03
1.00839235e+03
6.92420918e+02
8.96193585e+02
0.00000000e+00
9.78611308e+02
0.00000000e+00
9.57382852e+02
7.98774589e+02
8.54354399e+02
9.50411826e+02
6.31939127e+02
5.49142702e+02
0.00000000e+00
2.05741762e+03
0.00000000e+00
1.44448247e+03
1.14712805e+03
1.24380897e+03
8.55324954e+02
9.14095627e+02
9.51285309e+02
0.00000000e+00
0.00000000e+00
0.00000000e+00
1.05090826e+03
1.12895677e+03
9.71323956e+02
6.80282517e+02
0.00000000e+00
0.00000000e+00
0.00000000e+00
0.00000000e+00
0.00000000e+00
0.00000000e+00
6.87446177e+02
1.42679837e+03
7.16725230e+02
8.03307749e+02
8.40741338e+02
0.00000000e+00
8.52506633e+02
6.63886764e+02
9.36264930e+02
8.47476171e+02
7.87851124e+02
9.71754749e+02
0.00000000e+00
0.00000000e+00
0.00000000e+00
0.00000000e+00
0.00000000e+00
0.00000000e+00
0.00000000e+00
0.00000000e+00
0.00000000e+00
9.99777710e+02
8.45887033e+02
9.15208043e+02
0.00000000e+00
0.00000000e+00
0.00000000e+00
6.40684405e+02
0.00000000e+00
0.00000000e+00
8.29871270e+02
1.09084449e+03
1.10909782e+03
1.11849285e+03
9.50631921e+02
0.00000000e+00
0.00000000e+00
6.62122156e+02
0.00000000e+00
0.00000000e+00
0.00000000e+00
0.00000000e+00
1.02195656e+03
1.12828553e+03
0.00000000e+00
0.00000000e+00
1.27832310e+03
0.00000000e+00
0.00000000e+00
0.00000000e+00
0.00000000e+00
1.01193993e+03
1.14747486e+03
1.12628965e+03
0.00000000e+00
0.00000000e+00
0.00000000e+00
0.00000000e+00
0.00000000e+00
0.00000000e+00
1.04778262e+03
0.00000000e+00
0.00000000e+00
0.00000000e+00
0.00000000e+00
0.00000000e+00
1.15727940e+03
0.00000000e+00
0.00000000e+00
7.68369686e+02
0.00000000e+00
0.00000000e+00
8.92587542e+02
1.12950500e+03
1.10505744e+03
1.08014901e+03
0.00000000e+00
8.41396564e+02
7.66983067e+02
0.00000000e+00
0.00000000e+00
0.00000000e+00
0.00000000e+00
9.27578475e+02
1.02189955e+03
1.09618730e+03
1.12170724e+03
0.00000000e+00
1.28196159e+03
0.00000000e+00
0.00000000e+00
0.00000000e+00
0.00000000e+00
0.00000000e+00
0.00000000e+00
9.93225376e+02
9.92929231e+02
8.46938873e+02
0.00000000e+00
0.00000000e+00
0.00000000e+00
6.76614921e+02
8.43373555e+02
1.01951722e+03
0.00000000e+00
1.42145872e+03
1.31495917e+03
1.26174512e+03
1.13246578e+03
0.00000000e+00
0.00000000e+00
7.63097082e+02
7.32167023e+02
0.00000000e+00
0.00000000e+00
0.00000000e+00
0.00000000e+00
0.00000000e+00
0.00000000e+00
8.00942335e+02
9.48499518e+02
0.00000000e+00
7.14747222e+02
8.44515761e+02
0.00000000e+00
0.00000000e+00
1.20384778e+03
1.37309698e+03
1.40750577e+03
1.05317716e+03
0.00000000e+00
0.00000000e+00
0.00000000e+00
8.94906485e+02
0.00000000e+00
0.00000000e+00
0.00000000e+00
0.00000000e+00
0.00000000e+00
0.00000000e+00
7.85620628e+02
8.89390522e+02
7.76339227e+02
0.00000000e+00
0.00000000e+00
7.85734147e+02
1.08614514e+03
0.00000000e+00
1.30856801e+03
1.33699255e+03
1.20217877e+03
1.07758388e+03
8.18341685e+02
9.17907931e+02
0.00000000e+00
0.00000000e+00
0.00000000e+00
0.00000000e+00
0.00000000e+00
0.00000000e+00
6.71399035e+02
0.00000000e+00
0.00000000e+00
6.78754666e+02
5.92391586e+02
5.99766547e+02
0.00000000e+00
0.00000000e+00
1.33890389e+03
1.23930892e+03
1.34060154e+03
1.23554381e+03
0.00000000e+00
0.00000000e+00
1.09287146e+03
0.00000000e+00
0.00000000e+00
0.00000000e+00
0.00000000e+00
0.00000000e+00
6.21797714e+02
6.11402708e+02
6.30747658e+02
7.34128312e+02
0.00000000e+00
0.00000000e+00
4.94116693e+02
0.00000000e+00
0.00000000e+00
0.00000000e+00
1.33085636e+03
0.00000000e+00
1.32726643e+03
0.00000000e+00
0.00000000e+00
0.00000000e+00
0.00000000e+00
7.83507169e+02
0.00000000e+00
6.60814395e+02
5.07767971e+02
5.54831650e+02
0.00000000e+00
0.00000000e+00
5.95531702e+02
0.00000000e+00
0.00000000e+00
0.00000000e+00
0.00000000e+00
9.69108008e+02
1.29749811e+03
1.28334808e+03
0.00000000e+00
1.21340106e+03
0.00000000e+00
9.16612638e+02
9.33963501e+02
0.00000000e+00
0.00000000e+00
7.15604181e+02
0.00000000e+00
0.00000000e+00
5.24632307e+02
0.00000000e+00
0.00000000e+00
0.00000000e+00
0.00000000e+00
0.00000000e+00
0.00000000e+00
0.00000000e+00
1.20759841e+03
1.22414026e+03
1.21688047e+03
0.00000000e+00
1.11053341e+03
8.53485590e+02
0.00000000e+00
1.03407464e+03
1.03260507e+03
1.06140639e+03
0.00000000e+00
6.56458537e+02
0.00000000e+00
0.00000000e+00
0.00000000e+00
0.00000000e+00
0.00000000e+00
0.00000000e+00
6.63257158e+02
7.09998026e+02
0.00000000e+00
0.00000000e+00
0.00000000e+00
9.97571151e+02
0.00000000e+00
0.00000000e+00
0.00000000e+00
0.00000000e+00
9.40306702e+02
1.04969982e+03
1.05332404e+03
9.07492788e+02
0.00000000e+00
0.00000000e+00
0.00000000e+00
0.00000000e+00
0.00000000e+00
0.00000000e+00
0.00000000e+00
7.82821998e+02
9.28398385e+02
9.14879327e+02
9.86782567e+02
0.00000000e+00
0.00000000e+00
0.00000000e+00
0.00000000e+00
6.52972767e+02
0.00000000e+00
8.26799514e+02
9.95952058e+02
8.66196900e+02
0.00000000e+00
5.62803352e+02
0.00000000e+00
0.00000000e+00
0.00000000e+00
0.00000000e+00
0.00000000e+00
0.00000000e+00
1.01953680e+03
0.00000000e+00
0.00000000e+00
0.00000000e+00
8.18287367e+02
0.00000000e+00
6.75718787e+02
7.94081993e+02
6.62152072e+02
0.00000000e+00
0.00000000e+00
9.22840457e+02
6.23070842e+02
0.00000000e+00
0.00000000e+00
0.00000000e+00
0.00000000e+00
0.00000000e+00
0.00000000e+00
0.00000000e+00
0.00000000e+00
9.60471293e+02
1.22774345e+03
1.24280733e+03
8.12715767e+02
0.00000000e+00
0.00000000e+00
5.85597565e+02
6.90680759e+02
0.00000000e+00
1.06928837e+03
0.00000000e+00
1.04580412e+03
0.00000000e+00
0.00000000e+00
0.00000000e+00
0.00000000e+00
0.00000000e+00
0.00000000e+00
0.00000000e+00
0.00000000e+00
9.82904375e+02
0.00000000e+00
1.44177455e+03
0.00000000e+00
0.00000000e+00
7.71035647e+02
0.00000000e+00
0.00000000e+00
0.00000000e+00
0.00000000e+00
0.00000000e+00
1.18594285e+03
1.25262213e+03
1.03264195e+03
0.00000000e+00
0.00000000e+00
0.00000000e+00
7.07244056e+02
0.00000000e+00
8.30630769e+02
1.04809339e+03
1.40019909e+03
1.60656317e+03
1.57855077e+03
1.34454982e+03
1.41666256e+03
0.00000000e+00
0.00000000e+00
0.00000000e+00
7.98390490e+02
0.00000000e+00
1.05751776e+03
1.25876087e+03
1.24264339e+03
1.21764323e+03
0.00000000e+00
9.91465295e+02
1.00076936e+03
0.00000000e+00
0.00000000e+00
1.32383364e+03
1.46804127e+03
1.54976606e+03
1.74312262e+03
1.72624698e+03
1.61098748e+03
1.49175921e+03
1.19617602e+03
0.00000000e+00
9.10240194e+02
1.04054428e+03
9.25835202e+02
0.00000000e+00
0.00000000e+00
1.13805583e+03
0.00000000e+00
1.09449565e+03
0.00000000e+00
0.00000000e+00
0.00000000e+00
1.62257976e+03
1.40120602e+03
1.73938892e+03
1.76921106e+03
1.85374135e+03
1.78928391e+03
0.00000000e+00
1.57075189e+03
1.32208900e+03
0.00000000e+00
1.05837267e+03
1.05571645e+03
9.52773595e+02
8.65810098e+02
8.96884701e+02
1.00087757e+03
0.00000000e+00
9.47803444e+02
0.00000000e+00
1.20815044e+03
9.63834943e+02
1.15896341e+03
1.17441272e+03
1.63111722e+03
1.38883038e+03
9.55439890e+02
1.19757488e+03
1.14981409e+03
1.92709642e+03
0.00000000e+00
1.10344100e+03
1.18891370e+03
1.05511253e+03
1.23869609e+03
0.00000000e+00
1.04520709e+03
1.08146790e+03
1.98311780e+03
1.14122968e+03
1.57406330e+03
1.05011078e+03
9.65380786e+02
8.17908253e+02
1.96053286e+03
2.51236608e+03
2.51742534e+03
1.03340659e+03
2.58922412e+03
2.24328659e+03
1.68360929e+03
1.56105736e+03
1.32486715e+03
1.69024766e+03
1.21412639e+03
1.27512026e+03
0.00000000e+00
1.30318837e+03
1.34533682e+03
1.85592687e+03
6.48190300e+02
8.49384557e+02
2.11514608e+03
1.18233952e+03
0.00000000e+00
1.21316214e+03
9.00121790e+02
0.00000000e+00
0.00000000e+00
0.00000000e+00
2.36900514e+03
1.05894437e+03
1.30443537e+03
8.32329999e+02
1.65430318e+03
1.19444567e+03
0.00000000e+00
0.00000000e+00
1.10941389e+03
2.47289572e+03
8.43841766e+02
8.87836564e+02
2.44590197e+03
8.75067096e+02
1.59005464e+03
5.96829292e+02
1.30950857e+03
1.10130947e+03
1.48425915e+03
1.87846454e+03
1.52796507e+03
1.34849452e+03
1.10217000e+03
2.02173051e+03
1.10846038e+03
1.29446416e+03
2.04148642e+03
1.46095336e+03
0.00000000e+00
1.31085139e+03
1.88285561e+03
1.84167128e+03
2.56364543e+03
2.40712805e+03
1.39805058e+03
5.43291182e+02
5.89703914e+02
2.12411778e+03
2.43515688e+03
2.44755691e+03
1.10877426e+03
1.75394951e+03
9.35567493e+02
2.38352771e+03
7.34202036e+02
1.33678459e+03
1.63065277e+03
8.83707824e+02
1.32219782e+03
7.93697034e+02
2.48850802e+03
1.13151543e+03
1.08290254e+03
2.44277044e+03
1.15189614e+03
2.52433616e+03
1.42948088e+03
5.26546924e+02
6.01893709e+02
2.50183492e+03
1.12427179e+03
1.95327495e+03
1.84001296e+03
1.08628123e+03
1.06777606e+03
1.00829106e+03
1.18641489e+03
9.54366817e+02
1.60311674e+03
1.08008774e+03
0.00000000e+00
1.57575076e+03
1.30855348e+03
1.42147907e+03
1.66528612e+03
9.82938257e+02
2.11677555e+03
1.57986977e+03
5.47790258e+02
2.55365456e+03
7.76789167e+02
2.07412304e+03
2.57415831e+03
1.68915358e+03
1.51454606e+03
1.69177193e+03
1.54868510e+03
9.33145931e+02
9.82784746e+02
9.13806093e+02
9.71216638e+02
0.00000000e+00
1.21903901e+03
0.00000000e+00
1.42438956e+03
1.54118519e+03
2.00421240e+03
1.04374456e+03
2.38660500e+03
1.80926145e+03
2.05299730e+03
1.59135594e+03
1.08329477e+03
2.34229316e+03
1.58578740e+03
2.04010580e+03
2.16199059e+03
9.14299421e+02
9.61003494e+02
1.39470060e+03
9.53326663e+02
0.00000000e+00
0.00000000e+00
2.05618666e+03
6.70735475e+02
7.89569901e+02
2.03722126e+03
1.63606462e+03
1.13600141e+03
2.06239443e+03
2.14131611e+03
9.19206379e+02
1.77119416e+03
2.61631349e+03
1.71876166e+03
1.74703729e+03
1.24565847e+03
1.00309328e+03
2.58632865e+03
2.53366024e+03
1.26144587e+03
1.34401222e+03
0.00000000e+00
0.00000000e+00
2.16239807e+03
0.00000000e+00
1.22997021e+03
1.14793165e+03
6.66453595e+02
8.15307923e+02
9.33344429e+02
2.01890818e+03
1.14366254e+03
8.78967290e+02
9.63584521e+02
2.53230820e+03
1.36343529e+03
1.39802404e+03
1.58376275e+03
8.65664320e+02
1.28177929e+03
1.33828472e+03
1.05676728e+03
6.96898609e+02
0.00000000e+00
1.56297493e+03
0.00000000e+00
1.31152800e+03
9.10449305e+02
1.22488546e+03
7.41114796e+02
1.62912904e+03
1.58047179e+03
2.14915212e+03
1.38839628e+03
2.25811425e+03
9.66252207e+02
2.15099006e+03
1.49250031e+03
1.11606001e+03
2.17749836e+03
2.69063042e+03
0.00000000e+00
1.64202333e+03
0.00000000e+00
9.41472125e+02
1.34693503e+03
7.58028047e+02
1.30237747e+03
1.12277953e+03
7.96389581e+02
1.13832848e+03
1.10826065e+03
2.61548955e+03
1.80714463e+03
2.56451555e+03
1.77693808e+03
2.01792336e+03
1.45995411e+03
1.91932812e+03
1.44152444e+03
1.17154070e+03
1.12620259e+03
1.36872291e+03
1.05159043e+03
7.66438385e+02
9.26396344e+02
1.61557818e+03
0.00000000e+00
1.72003594e+03
1.89510034e+03
9.85371419e+02
1.53215369e+03
2.04315803e+03
2.57207449e+03
1.62644874e+03
1.87563944e+03
2.52916579e+03
1.06133697e+03
2.68578673e+03
1.66578221e+03
1.55861663e+03
1.45218105e+03
2.56356558e+03
1.31241729e+03
2.37955797e+03
0.00000000e+00
8.52036211e+02
1.21584586e+03
8.74769018e+02
1.56399730e+03
1.25756538e+03
1.17959044e+03
1.36633368e+03
1.31766815e+03
2.14170433e+03
1.15962362e+03
1.32817621e+03
1.32948595e+03
1.66998280e+03
1.06179008e+03
1.69902528e+03
1.39402602e+03
1.31928255e+03
1.78446137e+03
1.16174166e+03
9.62010556e+02
8.21030528e+02
0.00000000e+00
1.12820899e+03
1.01375686e+03
1.49461136e+03
1.57555805e+03
1.41446859e+03
1.99668837e+03
2.48981533e+03
2.10317042e+03
1.58969308e+03
2.42047503e+03
1.72501191e+03
1.47015803e+03
1.47124645e+03
1.57979915e+03
1.85912270e+03
2.42002203e+03
1.27089321e+03
1.19787130e+03
1.12801553e+03
0.00000000e+00
0.00000000e+00
1.26470553e+03
1.35761461e+03
1.27018371e+03
1.35403422e+03
6.84918747e+02
1.54814578e+03
1.42368407e+03
8.40589252e+02
1.60537504e+03
1.78673844e+03
2.04157823e+03
1.81070961e+03
1.74337071e+03
1.69595128e+03
8.33170070e+02
2.12556808e+03
1.10575147e+03
1.74579283e+03
1.15858910e+03
0.00000000e+00
0.00000000e+00
1.60598875e+03
1.76264292e+03
1.29810599e+03
2.35574342e+03
1.58134366e+03
1.81179285e+03
1.12462101e+03
2.06385911e+03
1.46928395e+03
1.87993002e+03
1.87506270e+03
1.83788227e+03
1.91737028e+03
2.72989619e+03
1.62965733e+03
2.72294069e+03
1.37236193e+03
1.95199497e+03
8.16162781e+02
1.00684891e+03
8.22790448e+02
1.14003083e+03
1.15898995e+03
1.52839995e+03
1.54490686e+03
2.01503232e+03
1.73961847e+03
1.69281098e+03
1.83217795e+03
1.82555153e+03
1.86673466e+03
1.95469267e+03
2.45537255e+03
2.08319156e+03
1.82609608e+03
1.54905447e+03
1.72192297e+03
1.86360745e+03
1.26076804e+03
1.17531238e+03
0.00000000e+00
0.00000000e+00
1.25987519e+03
9.41631254e+02
1.44545561e+03
1.77729461e+03
1.70716095e+03
1.62816040e+03
7.53025558e+02
1.06062842e+03
0.00000000e+00
1.29435271e+03
1.17370745e+03
1.58684069e+03
1.67036261e+03
1.54167470e+03
1.86610572e+03
1.46276174e+03
1.46197642e+03
1.16965663e+03
1.55220564e+03
9.44679854e+02
6.23355916e+02
2.19040919e+03
9.59800355e+02
1.70335226e+03
1.34987207e+03
1.83123762e+03
1.69632083e+03
1.80358519e+03
1.81613772e+03
1.89446489e+03
2.15427299e+03
1.92277590e+03
2.24204369e+03
1.94822002e+03
1.81112900e+03
1.72930470e+03
1.57200175e+03
1.67537958e+03
1.49859600e+03
2.35139030e+03
1.08378719e+03
0.00000000e+00
7.52807954e+02
0.00000000e+00
0.00000000e+00
1.16827941e+03
0.00000000e+00
0.00000000e+00
1.53576899e+03
1.74840212e+03
1.75882447e+03
1.84444582e+03
0.00000000e+00
1.96415170e+03
1.82371826e+03
1.76097652e+03
1.52017785e+03
1.26588020e+03
0.00000000e+00
1.09308577e+03
9.64243570e+02
0.00000000e+00
7.72740010e+02
0.00000000e+00
0.00000000e+00
8.57717651e+02
1.16282628e+03
6.15938101e+02
0.00000000e+00
0.00000000e+00
0.00000000e+00
1.03121289e+03
8.80074653e+02
1.47475606e+03
1.06429226e+03
0.00000000e+00
1.29732076e+03
7.82385518e+02
1.04771360e+03
7.42571268e+02
0.00000000e+00
1.33601417e+03
7.95966822e+02
0.00000000e+00
1.46130569e+03
1.29483289e+03
1.12104037e+03
8.26360910e+02
1.11608956e+03
1.13419791e+03
7.72034628e+02
2.38516524e+03
0.00000000e+00
8.89928749e+02
1.42208460e+03
6.16896380e+02
0.00000000e+00
1.05116066e+03
1.66621732e+03
2.49616580e+03
1.95448881e+03
1.54782847e+03
1.05664993e+03
1.50423974e+03
9.48295850e+02
1.20810655e+03
2.03397534e+03
2.42893808e+03
2.42199989e+03
2.01711765e+03
2.58989523e+03
8.81022112e+02
1.97472198e+03
1.21267754e+03
8.54252376e+02
1.25810113e+03
1.21032349e+03
1.64456097e+03
1.54455784e+03
2.49856673e+03
8.99604527e+02
1.04800634e+03
1.41246386e+03
1.14356948e+03
1.41674258e+03
0.00000000e+00
1.05815829e+03
1.91856646e+03
9.08267200e+02
2.13732952e+03
8.47754875e+02
1.59389439e+03
1.30466788e+03
1.50913357e+03
4.58103740e+02
4.60301576e+02
2.06299730e+03
1.83623896e+03
7.76489959e+02
1.14867056e+03
8.52196431e+02
1.16772215e+03
2.04999631e+03
1.07157394e+03
1.39889036e+03
1.51638893e+03
8.52613477e+02
1.61589225e+03
1.62227031e+03
9.13594662e+02
1.35330119e+03
2.45774303e+03
1.22754636e+03
1.54995419e+03
1.17289266e+03
1.72499870e+03
6.72202181e+02
8.18432218e+02
1.04079310e+03
1.50329099e+03
1.14525118e+03
1.26990226e+03
1.30865730e+03
8.59544165e+02
2.31909446e+03
1.39925031e+03
1.54333344e+03
0.00000000e+00
1.52109772e+03
1.95269361e+03
1.49289145e+03
2.29056578e+03
1.68466134e+03
1.78130899e+03
1.66131280e+03
1.02358382e+03
1.07917241e+03
7.95655616e+02
2.39467767e+03
1.26813835e+03
8.91472897e+02
1.53729769e+03
1.29278841e+03
1.46773718e+03
1.22096932e+03
1.13196481e+03
1.02175733e+03
1.27867191e+03
0.00000000e+00
1.55690377e+03
2.26613894e+03
9.46431297e+02
2.13895224e+03
2.16048389e+03
1.43636389e+03
1.83371952e+03
1.35693719e+03
2.50585100e+03
1.84874751e+03
5.74178680e+02
1.11030179e+03
1.23347750e+03
2.20301987e+03
2.45499930e+03
1.63221044e+03
2.50023673e+03
1.12841940e+03
1.20919745e+03
0.00000000e+00
0.00000000e+00
6.65979876e+02
2.53618404e+03
2.26494782e+03
2.03869449e+03
1.99111559e+03
7.79524879e+02
1.29520769e+03
9.81632014e+02
1.57766873e+03
2.54236283e+03
1.78168324e+03
1.55869610e+03
2.48176072e+03
2.45951300e+03
1.48473526e+03
2.41017616e+03
2.58584434e+03
2.38429097e+03
9.72988914e+02
1.06775714e+03
0.00000000e+00
0.00000000e+00
6.30335838e+02
1.44244302e+03
1.99094138e+03
1.17159522e+03
2.59263716e+03
1.12571024e+03
1.80394758e+03
1.85789680e+03
2.38968278e+03
1.27799836e+03
1.11701598e+03
1.36850665e+03
2.50338643e+03
1.16698543e+03
2.70185024e+03
2.04346782e+03
0.00000000e+00
0.00000000e+00
0.00000000e+00
4.53296862e+02
0.00000000e+00
2.23561341e+03
1.19323506e+03
2.54085531e+03
2.59380332e+03
2.37448405e+03
6.45479674e+02
7.25615057e+02
1.98566812e+03
9.83221147e+02
2.16425271e+03
1.30619470e+03
9.12921090e+02
1.92975895e+03
1.00385650e+03
1.70044712e+03
1.23957388e+03
1.03253868e+03
0.00000000e+00
0.00000000e+00
6.30122171e+02
0.00000000e+00
1.77946224e+03
1.30754795e+03
2.13450397e+03
2.32260720e+03
1.68458261e+03
1.16125749e+03
2.67117422e+03
2.53845609e+03
1.51591590e+03
2.63402784e+03
5.77726928e+02
2.58100616e+03
2.11449229e+03
2.02374820e+03
1.44513228e+03
1.33559094e+03
7.47262198e+02
0.00000000e+00
0.00000000e+00
8.82145502e+02
6.29761611e+02
2.55092826e+03
1.34831433e+03
1.85136385e+03
7.70443659e+02
1.54143418e+03
5.93631910e+02
2.67825764e+03
2.06660969e+03
1.83256222e+03
1.84114904e+03
9.74706548e+02
2.31216717e+03
1.70002731e+03
1.68894295e+03
1.26292459e+03
1.78547163e+03
2.79098437e+03
0.00000000e+00
0.00000000e+00
1.00148093e+03
8.69506794e+02
2.11866954e+03
1.42249394e+03
2.33030372e+03
1.71406439e+03
2.48914876e+03
2.52363545e+03
2.29311068e+03
2.54182362e+03
1.34955285e+03
2.49310091e+03
7.37467410e+02
2.38766760e+03
1.12997106e+03
2.70739565e+03
2.76971851e+03
1.59619012e+03
2.78069847e+03
0.00000000e+00
0.00000000e+00
1.00359745e+03
7.36780289e+02
2.60206379e+03
1.55206964e+03
2.46008138e+03
1.69217210e+03
1.55597878e+03
1.05734596e+03
1.84437205e+03
2.26019291e+03
7.21024945e+02
2.62518474e+03
2.58371833e+03
2.56004952e+03
1.44229282e+03
1.66260721e+03
2.64183668e+03
1.97110976e+03
1.22931278e+03
0.00000000e+00
9.77235513e+02
8.87970494e+02
2.00937729e+03
2.11065931e+03
1.91012226e+03
2.45293406e+03
2.24087096e+03
1.76453250e+03
1.23729096e+03
2.47745445e+03
2.13496540e+03
1.83970721e+03
2.38420397e+03
2.08583443e+03
1.81292247e+03
2.50502274e+03
2.64042909e+03
8.99541470e+02
2.03859959e+03
2.39333868e+03
1.01963487e+03
9.49202544e+02
8.87483856e+02
1.62587670e+03
2.40950109e+03
1.94836651e+03
2.16843296e+03
2.27671229e+03
2.61428688e+03
1.71227707e+03
2.68207018e+03
2.23211820e+03
8.29005760e+02
2.36298438e+03
2.64146368e+03
1.84835311e+03
2.21920942e+03
2.67884311e+03
2.60957941e+03
2.06851308e+03
1.81715452e+03
9.56111185e+02
1.01870004e+03
0.00000000e+00
2.22973503e+03
1.33817780e+03
2.60462103e+03
1.80561006e+03
1.66247793e+03
9.93767744e+02
1.77345654e+03
2.14372345e+03
2.69530616e+03
2.25390520e+03
1.88330562e+03
1.32195291e+03
1.82284830e+03
2.75618019e+03
7.94985017e+02
2.79160115e+03
2.51298699e+03
2.65822048e+03
1.54064425e+03
8.40205665e+02
0.00000000e+00
8.67855109e+02
1.30056980e+03
1.57429218e+03
1.14199077e+03
2.48658941e+03
2.43856707e+03
2.15231511e+03
1.71785836e+03
1.84343881e+03
1.72470864e+03
1.91116534e+03
1.77274516e+03
1.88444520e+03
1.83006678e+03
2.61566399e+03
2.41992538e+03
2.08535540e+03
1.89008053e+03
1.26210804e+03
0.00000000e+00
0.00000000e+00
1.24518159e+03
2.13956748e+03
2.06286789e+03
1.78573021e+03
2.43337833e+03
1.84382264e+03
2.38498963e+03
2.40792969e+03
2.30029712e+03
2.17612176e+03
2.73819395e+03
2.47371559e+03
1.85205615e+03
1.90626915e+03
2.35208766e+03
2.48736756e+03
2.74513644e+03
2.42606648e+03
1.29344682e+03
9.65561454e+02
0.00000000e+00
1.34358803e+03
1.15164627e+03
2.03828260e+03
2.43628469e+03
2.13848297e+03
1.75366671e+03
1.65133627e+03
1.83526949e+03
1.91462643e+03
0.00000000e+00
1.90762659e+03
1.94542164e+03
1.86342790e+03
1.73707601e+03
1.26282711e+03
1.74913113e+03
1.29386600e+03
2.12854571e+03
9.12263626e+02
7.97619324e+02
7.05564188e+02
0.00000000e+00
0.00000000e+00
0.00000000e+00
1.03923930e+03
1.32686974e+03
1.49785886e+03
1.33566101e+03
1.57717160e+03
1.77991752e+03
1.76510916e+03
1.70105353e+03
0.00000000e+00
1.90827196e+03
1.64611764e+03
1.53346902e+03
1.10572076e+03
0.00000000e+00
0.00000000e+00
0.00000000e+00
0.00000000e+00
0.00000000e+00
1.03684040e+03
0.00000000e+00
2.32596502e+03
1.32899413e+03
1.48955644e+03