# vtk DataFile Version 3.0
MPS 3D Simulation Step 1900
ASCII
DATASET UNSTRUCTURED_GRID
POINTS 20213 double
-1.17422773e-03 2.52213778e-04 -1.14711316e-03
-1.05709711e-03 2.27827876e-04 -1.23523356e-03
-9.89580931e-04 2.85198175e-04 -1.29931917e-03
-9.27472259e-04 3.44470361e-04 -1.35510643e-03
-7.95986230e-04 2.41504511e-04 -1.40364626e-03
-6.61715134e-04 2.36898768e-04 -1.47920345e-03
-5.11010242e-04 2.73239669e-04 -1.54684618e-03
-4.40808462e-04 2.23163170e-04 -1.55300061e-03
-3.82633402e-04 1.21677819e-04 -1.51259095e-03
-1.22710043e-04 2.18927919e-04 -1.49352667e-03
1.20117342e-04 1.50311011e-04 -1.58759252e-03
-1.13423600e-04 1.23132565e-04 -1.54109641e-03
4.29814671e-05 1.31499088e-04 -1.56884835e-03
1.91100401e-04 1.15580537e-04 -1.56403230e-03
3.70332251e-04 1.32250193e-04 -1.53716163e-03
6.98282028e-04 1.68924530e-04 -1.43764970e-03
6.26266153e-04 1.24919321e-04 -1.41463052e-03
8.50555787e-04 1.62250447e-04 -1.35415653e-03
9.67334035e-04 1.82379455e-04 -1.28209998e-03
9.94735301e-04 1.23771461e-04 -1.20472092e-03
1.14907118e-03 1.65827428e-04 -1.10946015e-03
-1.11338355e-03 2.21165861e-04 -1.19140869e-03
-1.05552837e-03 3.02358704e-04 -1.26032821e-03
-9.96788342e-04 3.66424591e-04 -1.31010843e-03
-7.37230348e-04 2.54036614e-04 -1.44317635e-03
-7.33018891e-04 3.82727270e-04 -1.46766689e-03
-6.96667529e-04 3.10394157e-04 -1.48023454e-03
-6.17479696e-04 3.12288660e-04 -1.51327526e-03
-4.33235908e-04 3.03458159e-04 -1.57225823e-03
-2.91987202e-04 2.10352815e-04 -1.57553353e-03
-1.80670730e-04 1.87057293e-04 -1.57717222e-03
-3.13478760e-05 1.77181369e-04 -1.58488100e-03
2.14974431e-04 2.04875321e-04 -1.60910660e-03
5.23377803e-04 1.31740491e-04 -1.49889349e-03
4.77160093e-04 2.34724184e-04 -1.55439416e-03
5.45968916e-04 1.88446370e-04 -1.51943412e-03
6.30632334e-04 2.40995487e-04 -1.49809943e-03
7.00201900e-04 2.42213403e-04 -1.46570641e-03
7.84202694e-04 1.27772877e-04 -1.36615618e-03
7.72456148e-04 2.01379114e-04 -1.41344330e-03
9.09193540e-04 2.42481102e-04 -1.34437004e-03
1.16888117e-03 2.33960171e-04 -1.13463369e-03
-1.13151776e-03 3.02399872e-04 -1.20158374e-03
-1.08865002e-03 3.69003429e-04 -1.24333953e-03
-1.03947431e-03 4.22915097e-04 -1.27584946e-03
-8.52047483e-04 2.88487436e-04 -1.38617384e-03
-7.85796315e-04 3.33218265e-04 -1.43440038e-03
-6.50648410e-04 3.85393420e-04 -1.50286884e-03
-4.75795059e-04 3.73872922e-04 -1.56269801e-03
-5.46449660e-04 3.37594672e-04 -1.54395888e-03
-3.61124945e-04 3.44766027e-04 -1.59204434e-03
-2.25852561e-04 2.43108745e-04 -1.59808951e-03
-4.24739193e-05 3.50387658e-04 -1.63343869e-03
2.52191417e-04 2.70375295e-04 -1.62011974e-03
3.27707322e-04 2.81402662e-04 -1.60257160e-03
5.52521258e-04 2.71210352e-04 -1.53124180e-03
3.89282807e-04 2.07703841e-04 -1.56782887e-03
6.98714612e-04 3.29007354e-04 -1.47630500e-03
7.63964901e-04 3.68753527e-04 -1.44455167e-03
7.65907763e-04 2.81853391e-04 -1.43893733e-03
8.44983124e-04 2.31220410e-04 -1.38547541e-03
1.01258346e-03 2.36264647e-04 -1.27252777e-03
1.04327602e-03 1.79322773e-04 -1.22150026e-03
-1.21885901e-03 4.06828906e-04 -1.12677243e-03
-1.15014939e-03 3.81393589e-04 -1.19095128e-03
-9.20254675e-04 4.26086451e-04 -1.36265813e-03
-8.08190202e-04 4.23615754e-04 -1.42767202e-03
-6.58561174e-04 4.58387306e-04 -1.49080385e-03
-5.68390806e-04 4.09412795e-04 -1.52844711e-03
-4.08950106e-04 4.11069829e-04 -1.57817699e-03
-2.82829945e-04 3.01926255e-04 -1.60063885e-03
-2.06235846e-04 3.29287092e-04 -1.61550099e-03
-1.45928962e-04 2.69831759e-04 -1.60973335e-03
3.69181700e-05 3.56145250e-04 -1.63975558e-03
5.17609949e-05 2.02580959e-04 -1.60733107e-03
1.78554002e-04 2.99473277e-04 -1.63542916e-03
2.72114149e-04 3.53895208e-04 -1.62116508e-03
4.03862816e-04 3.00033178e-04 -1.58123604e-03
6.21141683e-04 3.19183752e-04 -1.50845749e-03
6.54650357e-04 3.96818475e-04 -1.48897975e-03
9.03384418e-04 3.26138260e-04 -1.36322872e-03
9.69155863e-04 2.93315390e-04 -1.31367076e-03
1.06950872e-03 2.78260790e-04 -1.23989319e-03
1.09868987e-03 3.52223853e-04 -1.22412135e-03
-1.21571051e-03 4.94667135e-04 -1.10247301e-03
-9.75635732e-04 4.56246427e-04 -1.31953285e-03
-8.61459578e-04 3.68159196e-04 -1.39788732e-03
-7.36629091e-04 4.62441273e-04 -1.45773680e-03
-5.73600261e-04 4.87788302e-04 -1.50976308e-03
-4.97922723e-04 4.56759358e-04 -1.54073392e-03
-2.85341661e-04 3.86936740e-04 -1.60267410e-03
-2.03956878e-04 4.12779612e-04 -1.61303577e-03
-1.20052684e-04 3.46580109e-04 -1.62780897e-03
-4.28115391e-05 4.34657481e-04 -1.62705574e-03
4.01742443e-05 4.34573874e-04 -1.62820014e-03
1.00084115e-04 2.78813649e-04 -1.63485705e-03
1.93270094e-04 3.76696151e-04 -1.63267353e-03
3.47660168e-04 4.74512591e-04 -1.57919263e-03
2.80616857e-04 4.41370607e-04 -1.60323100e-03
4.82748198e-04 3.09286946e-04 -1.56220734e-03
5.60327413e-04 3.68532142e-04 -1.52852526e-03
8.34524863e-04 3.05961539e-04 -1.40590395e-03
9.71076996e-04 3.80142945e-04 -1.31627980e-03
1.03025241e-03 3.37757027e-04 -1.27570106e-03
1.05608655e-03 4.21906553e-04 -1.24479014e-03
-1.19869054e-03 5.78956521e-04 -1.07047982e-03
-1.09425826e-03 4.63259440e-04 -1.22053703e-03
-9.26023957e-04 5.21713769e-04 -1.34164167e-03
-8.67199573e-04 4.76905913e-04 -1.39006651e-03
-6.34676219e-04 5.39702613e-04 -1.47519642e-03
-3.23935619e-04 5.27852672e-04 -1.56795476e-03
-3.37378033e-04 4.50115195e-04 -1.58605352e-03
-2.52671656e-04 4.77852024e-04 -1.59446268e-03
-1.22692409e-04 4.25498786e-04 -1.62313548e-03
-8.16293181e-05 5.06714286e-04 -1.60637515e-03
-9.79689868e-09 5.13365475e-04 -1.60496637e-03
1.12526992e-04 3.57274158e-04 -1.64176668e-03
2.07205449e-04 4.56591330e-04 -1.61281116e-03
4.08154676e-04 4.08253561e-04 -1.57837976e-03
3.46806905e-04 3.66179772e-04 -1.60077380e-03
5.07362067e-04 4.56898785e-04 -1.53701153e-03
5.84864601e-04 4.53432000e-04 -1.50771984e-03
7.26464201e-04 4.42951172e-04 -1.44959961e-03
8.98103167e-04 4.12775612e-04 -1.36409080e-03
9.97885157e-04 4.56870057e-04 -1.28309565e-03
1.13035177e-03 4.08038348e-04 -1.18808487e-03
-1.15272145e-03 5.31555773e-04 -1.14341613e-03
-1.16226890e-03 4.55395351e-04 -1.16546253e-03
-9.71226547e-04 5.63248359e-04 -1.29059605e-03
-7.97922232e-04 5.10837549e-04 -1.42132631e-03
-7.13400229e-04 5.41220874e-04 -1.44537196e-03
-4.75724226e-04 5.37019816e-04 -1.52454005e-03
-2.25424460e-04 5.58682526e-04 -1.57119140e-03
-1.71186798e-04 4.96428828e-04 -1.59980075e-03
-1.30634667e-04 5.70285134e-04 -1.57858262e-03
-4.46599024e-05 5.86696546e-04 -1.57604753e-03
8.33724198e-05 5.13997236e-04 -1.60351857e-03
1.25667339e-04 4.40038166e-04 -1.62449808e-03
2.70757396e-04 5.30758172e-04 -1.57301497e-03
3.53849316e-04 5.53860920e-04 -1.55250256e-03
4.26045234e-04 4.94102411e-04 -1.55515110e-03
6.57790483e-04 4.84225715e-04 -1.47021419e-03
7.47987929e-04 5.25787126e-04 -1.42005232e-03
8.36234605e-04 3.85395873e-04 -1.40565191e-03
7.99558342e-04 4.60998082e-04 -1.41204222e-03
1.10665721e-03 4.82938691e-04 -1.18573855e-03
1.07362214e-03 5.73838934e-04 -1.17921562e-03
-1.18856536e-03 6.51844459e-04 -1.03176158e-03
-1.08701175e-03 5.40133407e-04 -1.19727277e-03
-1.02470679e-03 5.06271712e-04 -1.26606483e-03
-8.56269223e-04 5.57708056e-04 -1.37446919e-03
-5.44680318e-04 5.65747461e-04 -1.49205931e-03
-3.89651577e-04 5.72409876e-04 -1.53798325e-03
-2.99780060e-04 5.97125325e-04 -1.54837746e-03
-1.89663756e-04 6.28965081e-04 -1.54809496e-03
-9.71570787e-05 6.45765056e-04 -1.54636527e-03
3.57904174e-05 5.92184614e-04 -1.57477048e-03
1.19682083e-04 5.85908041e-04 -1.57258447e-03
1.75866844e-04 5.24935860e-04 -1.59097074e-03
2.92425070e-04 6.10472921e-04 -1.53968997e-03
4.30309036e-04 5.75877737e-04 -1.53083407e-03
4.99925972e-04 5.36467023e-04 -1.52329683e-03
5.80003686e-04 5.32914650e-04 -1.49273177e-03
6.72097723e-04 5.59529124e-04 -1.44477482e-03
8.10018155e-04 5.60628315e-04 -1.37749602e-03
9.35323669e-04 4.73768552e-04 -1.32604146e-03
1.03910102e-03 5.14268882e-04 -1.22999446e-03
1.11516359e-03 6.29185754e-04 -1.12188364e-03
-1.12984850e-03 6.06187797e-04 -1.11972375e-03
-1.06711476e-03 6.16427454e-04 -1.17156383e-03
-1.01778277e-03 5.88169849e-04 -1.23345017e-03
-6.89965581e-04 6.13936740e-04 -1.42374214e-03
-6.11201540e-04 6.12289680e-04 -1.45216481e-03
-4.46130456e-04 6.20590329e-04 -1.50138097e-03
-3.70743288e-04 6.53095588e-04 -1.50832864e-03
-2.61573554e-04 6.60909921e-04 -1.52645796e-03
-1.54068662e-04 7.00566987e-04 -1.51569706e-03
-9.18584817e-06 6.65528377e-04 -1.54085542e-03
7.23349871e-05 6.63499757e-04 -1.54013886e-03
2.05395689e-04 5.95746804e-04 -1.55603100e-03
2.42378361e-04 6.72474525e-04 -1.51758056e-03
3.62070219e-04 6.43312968e-04 -1.51305356e-03
4.42248530e-04 6.45723301e-04 -1.49947485e-03
5.97312928e-04 6.00873532e-04 -1.46560239e-03
5.62399875e-04 6.74071576e-04 -1.44600697e-03
7.25271758e-04 6.09638501e-04 -1.40442625e-03
8.62046650e-04 4.90141397e-04 -1.36924902e-03
9.61117020e-04 5.44542907e-04 -1.28184153e-03
1.03762049e-03 6.53646681e-04 -1.17547295e-03
-1.12054837e-03 6.72405213e-04 -1.07906696e-03
-9.99755486e-04 6.66950945e-04 -1.19401468e-03
-9.01473977e-04 6.03631202e-04 -1.32257866e-03
-7.77022751e-04 5.84263669e-04 -1.40217144e-03
-6.56387766e-04 6.87496399e-04 -1.39405095e-03
-5.18520766e-04 6.40082560e-04 -1.46872380e-03
-4.55436296e-04 6.99460786e-04 -1.45930031e-03
-3.18656709e-04 7.08913984e-04 -1.49493368e-03
-2.27392088e-04 7.29034140e-04 -1.49317732e-03
-6.64986705e-05 7.21024263e-04 -1.50803693e-03
2.34279249e-05 7.38305712e-04 -1.50144788e-03
1.57022065e-04 6.61193115e-04 -1.53303549e-03
1.98124006e-04 7.32976008e-04 -1.49136517e-03
3.10512488e-04 7.06616177e-04 -1.48741478e-03
3.99876471e-04 7.21596983e-04 -1.46472550e-03
5.15886835e-04 6.11104647e-04 -1.49379159e-03
6.18993143e-04 7.27472414e-04 -1.39127914e-03
6.51195071e-04 6.46324418e-04 -1.42033365e-03
8.49973002e-04 6.23960380e-04 -1.33494059e-03
9.96652766e-04 5.95408740e-04 -1.23317980e-03
1.07844415e-03 7.02845966e-04 -1.11559170e-03
-1.04957196e-03 6.94882477e-04 -1.12762062e-03
-9.69493571e-04 7.34553881e-04 -1.16336481e-03
[...]
POINT_DATA 20213
SCALARS pressure double 1
LOOKUP_TABLE default
1.54227989e+03
1.21511602e+03
1.07364754e+03
1.12741855e+03
0.00000000e+00
1.12795630e+03
0.00000000e+00
9.78657852e+02
7.32849519e+02
8.78938921e+02
0.00000000e+00
0.00000000e+00
0.00000000e+00
0.00000000e+00
0.00000000e+00
0.00000000e+00
4.90278801e+02
8.70034497e+02
8.92902223e+02
8.16928839e+02
8.83262701e+02
1.38700782e+03
1.33213837e+03
1.31835065e+03
9.95395309e+02
0.00000000e+00
1.08197269e+03
1.29828118e+03
0.00000000e+00
8.05955521e+02
0.00000000e+00
6.11171363e+02
0.00000000e+00
0.00000000e+00
0.00000000e+00
0.00000000e+00
0.00000000e+00
0.00000000e+00
0.00000000e+00
0.00000000e+00
9.84669948e+02
0.00000000e+00
1.63173799e+03
1.45787031e+03
1.36826487e+03
0.00000000e+00
8.34517629e+02
1.13839119e+03
1.20391829e+03
0.00000000e+00
0.00000000e+00
7.47673891e+02
8.55566757e+02
0.00000000e+00
0.00000000e+00
0.00000000e+00
6.49893674e+02
0.00000000e+00
0.00000000e+00
0.00000000e+00
8.77798459e+02
1.10868569e+03
0.00000000e+00
1.59179888e+03
1.64160887e+03
9.63632396e+02
0.00000000e+00
0.00000000e+00
1.24157949e+03
0.00000000e+00
0.00000000e+00
0.00000000e+00
7.42521082e+02
6.54600430e+02
0.00000000e+00
0.00000000e+00
0.00000000e+00
8.61201506e+02
0.00000000e+00
0.00000000e+00
0.00000000e+00
1.10791552e+03
1.04353868e+03
0.00000000e+00
1.32564805e+03
1.09264619e+03
0.00000000e+00
0.00000000e+00
1.17674401e+03
1.38848868e+03
9.16596327e+02
8.40384923e+02
0.00000000e+00
9.04519237e+02
7.43527645e+02
0.00000000e+00
0.00000000e+00
6.34702038e+02
0.00000000e+00
0.00000000e+00
7.52608433e+02
0.00000000e+00
1.26724531e+03
1.13641062e+03
1.18907501e+03
9.82452436e+02
1.31071202e+03
0.00000000e+00
0.00000000e+00
0.00000000e+00
0.00000000e+00
0.00000000e+00
0.00000000e+00
0.00000000e+00
0.00000000e+00
9.95193210e+02
0.00000000e+00
0.00000000e+00
7.69122304e+02
7.78478016e+02
7.84681169e+02
0.00000000e+00
8.27717502e+02
1.09168499e+03
1.39005209e+03
0.00000000e+00
0.00000000e+00
1.32873440e+03
0.00000000e+00
0.00000000e+00
0.00000000e+00
1.36661111e+03
7.55060097e+02
7.56212367e+02
0.00000000e+00
7.63110982e+02
7.63777987e+02
0.00000000e+00
0.00000000e+00
0.00000000e+00
7.55677617e+02
7.00116250e+02
0.00000000e+00
8.90585004e+02
0.00000000e+00
0.00000000e+00
0.00000000e+00
0.00000000e+00
0.00000000e+00
1.07033667e+03
0.00000000e+00
1.15992024e+03
1.19721477e+03
8.98429044e+02
0.00000000e+00
0.00000000e+00
8.20589967e+02
0.00000000e+00
0.00000000e+00
0.00000000e+00
0.00000000e+00
7.03668673e+02
0.00000000e+00
7.02424793e+02
0.00000000e+00
1.33715194e+03
1.05645838e+03
0.00000000e+00
9.08271459e+02
0.00000000e+00
0.00000000e+00
0.00000000e+00
1.09077658e+03
1.15825233e+03
0.00000000e+00
0.00000000e+00
0.00000000e+00
0.00000000e+00
0.00000000e+00
5.35482007e+02
0.00000000e+00
0.00000000e+00
0.00000000e+00
0.00000000e+00
0.00000000e+00
7.15099611e+02
0.00000000e+00
1.25422851e+03
0.00000000e+00
0.00000000e+00
0.00000000e+00
0.00000000e+00
0.00000000e+00
1.02471801e+03
1.15947137e+03
1.00055037e+03
0.00000000e+00
0.00000000e+00
4.71254584e+02
6.55295082e+02
6.27370326e+02
0.00000000e+00
0.00000000e+00
0.00000000e+00
0.00000000e+00
4.83409366e+02
6.48697483e+02
0.00000000e+00
9.73996730e+02
9.45824458e+02
0.00000000e+00
0.00000000e+00
0.00000000e+00
1.09735555e+03
1.18486399e+03
0.00000000e+00
9.23057851e+02
6.93974850e+02
0.00000000e+00
0.00000000e+00
7.89980474e+02
0.00000000e+00
6.22306303e+02
0.00000000e+00
0.00000000e+00
0.00000000e+00
0.00000000e+00
0.00000000e+00
0.00000000e+00
0.00000000e+00
1.10311430e+03
9.30455869e+02
9.08934322e+02
0.00000000e+00
8.46075414e+02
1.01979238e+03
9.91995889e+02
9.26040009e+02
8.26467700e+02
0.00000000e+00
0.00000000e+00
0.00000000e+00
0.00000000e+00
0.00000000e+00
0.00000000e+00
0.00000000e+00
6.61709212e+02
7.81851448e+02
0.00000000e+00
1.10777391e+03
0.00000000e+00
1.10862863e+03
9.92606856e+02
9.38738337e+02
6.90289065e+02
0.00000000e+00
0.00000000e+00
8.07043065e+02
0.00000000e+00
0.00000000e+00
0.00000000e+00
0.00000000e+00
6.33854449e+02
0.00000000e+00
0.00000000e+00
0.00000000e+00
0.00000000e+00
0.00000000e+00
7.48733069e+02
0.00000000e+00
0.00000000e+00
1.22095645e+03
1.14718379e+03
8.95597367e+02
0.00000000e+00
8.06091527e+02
0.00000000e+00
0.00000000e+00
0.00000000e+00
6.70512411e+02
0.00000000e+00
0.00000000e+00
0.00000000e+00
5.46987874e+02
0.00000000e+00
0.00000000e+00
0.00000000e+00
0.00000000e+00
0.00000000e+00
0.00000000e+00
1.01113405e+03
1.21940259e+03
1.21950746e+03
0.00000000e+00
0.00000000e+00
0.00000000e+00
0.00000000e+00
0.00000000e+00
0.00000000e+00
8.55059268e+02
0.00000000e+00
0.00000000e+00
0.00000000e+00
0.00000000e+00
6.22601785e+02
6.60697184e+02
0.00000000e+00
0.00000000e+00
0.00000000e+00
0.00000000e+00
8.17449773e+02
0.00000000e+00
1.16207290e+03
0.00000000e+00
1.08060322e+03
7.37285246e+02
7.34487916e+02
8.93300303e+02
0.00000000e+00
0.00000000e+00
7.79564008e+02
8.35250555e+02
0.00000000e+00
0.00000000e+00
0.00000000e+00
5.99503829e+02
7.55769233e+02
0.00000000e+00
0.00000000e+00
0.00000000e+00
0.00000000e+00
8.33416714e+02
1.13535979e+03
1.16398756e+03
1.10363015e+03
0.00000000e+00
0.00000000e+00
0.00000000e+00
7.49792012e+02
0.00000000e+00
7.99620960e+02
0.00000000e+00
8.06176730e+02
0.00000000e+00
0.00000000e+00
0.00000000e+00
7.69423984e+02
9.13417440e+02
0.00000000e+00
0.00000000e+00
0.00000000e+00
0.00000000e+00
9.81281430e+02
1.01318027e+03
0.00000000e+00
1.10524359e+03
9.50636460e+02
6.80324613e+02
8.16549612e+02
8.88427331e+02
7.75991224e+02
0.00000000e+00
0.00000000e+00
8.26349676e+02
6.03802540e+02
6.43444111e+02
0.00000000e+00
8.79203601e+02
9.08131808e+02
0.00000000e+00
0.00000000e+00
0.00000000e+00
1.05755765e+03
1.09549031e+03
0.00000000e+00
0.00000000e+00
1.14013875e+03
0.00000000e+00
6.33981689e+02
7.30147257e+02
8.69094075e+02
8.86257586e+02
8.89835975e+02
8.63613537e+02
0.00000000e+00
0.00000000e+00
5.90653688e+02
0.00000000e+00
7.07545997e+02
1.04029867e+03
1.04202674e+03
0.00000000e+00
9.18931915e+02
1.05140098e+03
1.30934119e+03
1.26957267e+03
9.66272129e+02
1.05861125e+03
8.47558696e+02
0.00000000e+00
0.00000000e+00
9.25010790e+02
7.81464050e+02
0.00000000e+00
0.00000000e+00
7.10539719e+02
0.00000000e+00
0.00000000e+00
0.00000000e+00
0.00000000e+00
7.02424323e+02
1.03568072e+03
9.53713468e+02
1.06691161e+03
1.26726455e+03
1.32098438e+03
1.41390794e+03
1.23096354e+03
0.00000000e+00
0.00000000e+00
0.00000000e+00
0.00000000e+00
7.78798449e+02
7.82120658e+02
0.00000000e+00
8.85992980e+02
0.00000000e+00
0.00000000e+00
0.00000000e+00
0.00000000e+00
0.00000000e+00
0.00000000e+00
7.65385292e+02
9.26760225e+02
0.00000000e+00
1.10857514e+03
1.34580509e+03
1.20631916e+03
0.00000000e+00
0.00000000e+00
0.00000000e+00
1.21896114e+03
0.00000000e+00
0.00000000e+00
0.00000000e+00
0.00000000e+00
8.83246434e+02
8.57941745e+02
1.02770251e+03
9.40838027e+02
1.06736869e+03
9.92126363e+02
6.35447340e+02
6.04254571e+02
7.56734170e+02
8.32031324e+02
1.18682325e+03
0.00000000e+00
1.09605552e+03
1.15281652e+03
0.00000000e+00
9.32316663e+02
1.50021152e+03
1.38349415e+03
1.39335255e+03
1.18758450e+03
9.08878568e+02
1.15838319e+03
1.32227916e+03
1.07577960e+03
9.67503781e+02
8.09083075e+02
1.02668487e+03
9.66666266e+02
1.42779981e+03
1.14795792e+03
8.68222935e+02
9.32297052e+02
1.05412964e+03
1.31186854e+03
1.27047930e+03
1.21991655e+03
0.00000000e+00
1.58564053e+03
1.33964354e+03
9.84714839e+02
1.24861567e+03
1.30581548e+03
1.13386590e+03
1.27298799e+03
0.00000000e+00
7.67772802e+02
0.00000000e+00
6.94662594e+02
0.00000000e+00
0.00000000e+00
4.92365819e+02
1.11432994e+03
1.00785983e+03
1.41397662e+03
1.17626320e+03
1.18338347e+03
1.00373832e+03
0.00000000e+00
1.34203774e+03
1.08934184e+03
1.15638381e+03
1.19951741e+03
1.33427408e+03
1.28344708e+03
1.37314562e+03
9.54498508e+02
1.35388919e+03
1.22342292e+03
1.52504570e+03
1.02226387e+03
8.67402749e+02
7.76321639e+02
6.32024689e+02
7.70454705e+02
1.27526233e+03
1.35561582e+03
1.20067202e+03
1.29070556e+03
1.15258458e+03
0.00000000e+00
1.19085067e+03
1.48430584e+03
1.02804681e+03
1.22349994e+03
1.24926349e+03
1.14267215e+03
8.23980397e+02
9.09454716e+02
9.09754884e+02
9.64053340e+02
1.40080834e+03
1.33945046e+03
1.27105262e+03
1.35821323e+03
9.90132495e+02
1.52417893e+03
9.21682951e+02
1.25561743e+03
9.59492705e+02
1.10031745e+03
0.00000000e+00
1.25501079e+03
1.01698052e+03
9.14203852e+02
1.17315920e+03
1.29950159e+03
1.17930876e+03
1.30166361e+03
7.30530372e+02
8.79162965e+02
1.13161473e+03
6.88030699e+02
9.41991077e+02
6.81765403e+02
1.55284967e+03
8.56012884e+02
1.31209796e+03
1.07495410e+03
1.10271220e+03
1.05499156e+03
9.18328381e+02
1.31115672e+03
1.22114701e+03
8.89496671e+02
9.87663555e+02
1.19041533e+03
1.12292668e+03
1.07933406e+03
9.42945863e+02
1.03060572e+03
1.11417004e+03
8.04696712e+02
9.79070819e+02
1.24699516e+03
8.37740747e+02
6.29465689e+02
1.14335128e+03
1.18812618e+03
1.10278606e+03
1.10270055e+03
1.16753321e+03
8.46279689e+02
0.00000000e+00
1.05194939e+03
0.00000000e+00
1.15084327e+03
1.13155280e+03
1.23880406e+03
8.62398198e+02
1.09020913e+03
1.43438385e+03
7.65212113e+02
7.71529539e+02
8.02801462e+02
1.28649214e+03
9.62991264e+02
5.43359749e+02
1.25176785e+03
1.14109454e+03
1.20514113e+03
1.02393122e+03
1.24306768e+03
0.00000000e+00
0.00000000e+00
1.21876708e+03
0.00000000e+00
1.28109323e+03
1.19832370e+03
1.17612120e+03
1.12134434e+03
1.17445221e+03
1.56047097e+03
1.52594353e+03
1.36217924e+03
1.17498494e+03
1.65390362e+03
9.10734938e+02
5.47936243e+02
9.39313209e+02
1.50111043e+03
1.33741610e+03
0.00000000e+00
1.27673677e+03
0.00000000e+00
8.70143614e+02
1.22187235e+03
0.00000000e+00
9.68340454e+02
1.16206420e+03
1.03077727e+03
7.31448022e+02
5.87761436e+02
9.47018220e+02
6.18171710e+02
6.63301367e+02
7.32909138e+02
8.62978476e+02
6.02305429e+02
5.77899504e+02
5.55406884e+02
9.78246631e+02
1.28757499e+03
7.07843960e+02
1.21488159e+03
9.30545485e+02
9.30156273e+02
1.18181267e+03
8.82693638e+02
1.12262300e+03
1.07425113e+03
9.93589140e+02
1.03139412e+03
8.84159632e+02
1.09313083e+03
1.27407897e+03
9.43094508e+02
1.23632699e+03
1.58305536e+03
1.23099845e+03
5.58901576e+02
6.93152614e+02
1.31667162e+03
1.47042742e+03
0.00000000e+00
1.32943365e+03
1.16126322e+03
9.34451093e+02
1.09641539e+03
1.01389397e+03
9.66162992e+02
9.96170925e+02
9.18524533e+02
9.06589716e+02
6.10430475e+02
1.10994215e+03
1.01728576e+03
1.36277861e+03
7.97994172e+02
7.66508583e+02
4.28527851e+02
7.88169492e+02
8.04349907e+02
9.34315877e+02
1.27408045e+03
0.00000000e+00
1.25374791e+03
1.16985078e+03
0.00000000e+00
1.14769136e+03
0.00000000e+00
1.18727432e+03
1.23967646e+03
9.13822727e+02
9.48594216e+02
1.19193396e+03
1.47184361e+03
9.97842531e+02
1.05612296e+03
1.47904599e+03
1.76521413e+03
1.27451713e+03
6.59747567e+02
9.15025993e+02
1.19843674e+03
1.37138864e+03
8.45724778e+02
1.36838997e+03
1.21689577e+03
0.00000000e+00
9.98297285e+02
0.00000000e+00
1.12075755e+03
8.68577896e+02
9.17643064e+02
8.58475475e+02
6.57823466e+02
9.90912854e+02
5.73252758e+02
7.45417904e+02
7.18290310e+02
1.01607719e+03
6.25055402e+02
4.41070942e+02
1.07386786e+03
1.10473872e+03
1.28184724e+03
1.11523014e+03
1.25629803e+03
1.28632678e+03
0.00000000e+00
9.18931953e+02
9.48085092e+02
9.63638739e+02
1.11416608e+03
9.02703875e+02
9.38094555e+02
9.40522256e+02
6.33565929e+02
7.27113441e+02
1.37046302e+03
8.76111309e+02
6.33700401e+02
4.77550363e+02
4.52154493e+02
1.06398164e+03
1.30033972e+03
1.20558857e+03
1.24924147e+03
1.18960848e+03
1.00169844e+03
0.00000000e+00
8.69174905e+02
9.68818291e+02
9.58274963e+02
9.16484843e+02
9.03514041e+02
9.47197351e+02
8.20414871e+02
6.16499664e+02
6.53999613e+02
8.28274285e+02
9.01857916e+02
8.35968330e+02
5.88401127e+02
8.50892394e+02
6.66237908e+02
1.17719705e+03
1.28514506e+03
1.19794325e+03
1.03712453e+03
0.00000000e+00
7.97805764e+02
1.12521130e+03
1.38113124e+03
1.00994669e+03
1.30274996e+03
1.02634646e+03
1.17241923e+03
6.69037254e+02
1.03627446e+03
7.06570528e+02
1.09259112e+03
1.03496424e+03
1.06542648e+03
1.08715996e+03
1.28336002e+03
8.20938094e+02
1.43421300e+03
1.24798682e+03
1.33451517e+03
7.91577685e+02
0.00000000e+00
0.00000000e+00
7.85011990e+02
9.11308157e+02
1.16684261e+03
1.03636811e+03
9.54296129e+02
7.44677904e+02
7.01382250e+02
1.08339020e+03
9.12934597e+02
1.05108456e+03
1.01742390e+03
1.20357009e+03
1.21674054e+03
1.13539302e+03
1.09897807e+03
1.33962892e+03
1.37269239e+03
1.32219802e+03
1.07393895e+03
0.00000000e+00
0.00000000e+00
8.35670070e+02
9.16305813e+02
1.03108271e+03
1.20096768e+03
1.02082599e+03
8.40671513e+02
0.00000000e+00
0.00000000e+00
0.00000000e+00
0.00000000e+00
9.40498427e+02
1.03014103e+03
1.11486519e+03
1.27476319e+03
1.36668283e+03
1.34497256e+03
1.30726849e+03
9.70245856e+02
6.55192925e+02
0.00000000e+00
0.00000000e+00
1.17847127e+03
9.43117552e+02
9.49255923e+02
9.62255803e+02
9.86037481e+02
8.89841371e+02
7.90831635e+02
1.09984702e+03
7.87579606e+02
1.08404378e+03
9.65461945e+02
1.03305250e+03
9.80215375e+02
1.08013448e+03
1.23195267e+03
1.23080310e+03
1.11321777e+03
7.14404073e+02
1.01099129e+03
0.00000000e+00
0.00000000e+00
5.71261408e+02
0.00000000e+00
0.00000000e+00
0.00000000e+00
8.17531754e+02
7.96972113e+02
0.00000000e+00
8.04541952e+02
6.02632558e+02
0.00000000e+00
6.23827302e+02
0.00000000e+00
7.94913641e+02
8.65522642e+02
1.12481235e+03
0.00000000e+00
7.93098961e+02
8.51984147e+02
0.00000000e+00
0.00000000e+00
0.00000000e+00
1.43395974e+03
1.03880058e+03
0.00000000e+00
1.18649906e+03
0.00000000e+00
0.00000000e+00
0.00000000e+00
0.00000000e+00
1.23909911e+03
1.23270759e+03
5.22817079e+02
9.08627523e+02
0.00000000e+00
7.34352575e+02
8.44920331e+02
1.20260765e+03
1.19849232e+03
9.53405122e+02
0.00000000e+00
0.00000000e+00
1.00606693e+03
1.33449489e+03
1.43304212e+03
1.55998197e+03
1.16893913e+03
1.00258585e+03
1.34163359e+03
1.12636780e+03
1.04852184e+03
0.00000000e+00
6.36215112e+02
5.27264182e+02
8.98371300e+02
0.00000000e+00
8.79099344e+02
1.25931713e+03
1.19681590e+03
1.26249891e+03
1.05825288e+03
9.34715941e+02
1.05947711e+03
0.00000000e+00
1.13492562e+03
1.03290634e+03
1.21368004e+03
1.43721096e+03
1.07998262e+03
1.20403184e+03
1.17727709e+03
1.19628672e+03
1.29443348e+03
1.34068561e+03
1.00014196e+03
1.00738779e+03
1.08439999e+03
1.04716277e+03
1.18522789e+03
1.33213090e+03
1.57542807e+03
1.44194434e+03
1.14162201e+03
1.03915616e+03
0.00000000e+00
1.08728812e+03
1.29783981e+03
1.45224716e+03
1.33232614e+03
1.32478609e+03
1.18554806e+03
1.18253639e+03
1.15232273e+03
1.02824355e+03
9.57928884e+02
7.80874009e+02
7.90439630e+02
1.48929788e+03
1.37866430e+03
1.18575842e+03
1.15681838e+03
1.32884672e+03
1.47222388e+03
1.25266291e+03
1.26283583e+03
0.00000000e+00
1.42584696e+03
1.73972441e+03
1.52397382e+03
1.21117560e+03
1.03074056e+03
1.17795938e+03
1.08754742e+03
1.34018752e+03
1.51391067e+03
1.27037941e+03
1.55506390e+03
1.11200087e+03
1.29972925e+03
1.20644305e+03
1.19463499e+03
1.20473820e+03
1.25784994e+03
1.18047366e+03
1.40087420e+03
1.20080092e+03
0.00000000e+00
1.19969086e+03
1.47941046e+03
1.15822092e+03
9.99147946e+02
1.43151137e+03
1.25282710e+03
1.41439862e+03
1.18628344e+03
1.11648602e+03
1.16927889e+03
1.43198599e+03
1.12809075e+03
1.35786296e+03
1.20459425e+03
1.02085565e+03
1.44336192e+03
1.39214754e+03
1.53369154e+03
1.42959234e+03
1.02455972e+03
0.00000000e+00
1.23925117e+03
1.59072395e+03
1.32925508e+03
1.13653780e+03
1.17197148e+03
1.18796432e+03
1.26024776e+03
1.08720486e+03
1.00096190e+03
1.41844972e+03
1.58927606e+03
1.12659625e+03
7.46136498e+02
1.05470354e+03
1.41442541e+03
1.45354911e+03
1.32816557e+03
1.36292797e+03
1.16839207e+03
0.00000000e+00
8.14451263e+02
7.92294267e+02
1.25938998e+03
1.37423637e+03
1.15454287e+03
1.20290843e+03
1.29020528e+03
1.24051411e+03
1.40797432e+03
1.62189022e+03
9.60497067e+02
1.42763509e+03
1.40045964e+03
1.16791550e+03
1.19953635e+03
8.71817838e+02
1.39777207e+03
1.44478864e+03
1.41885457e+03
0.00000000e+00
0.00000000e+00
0.00000000e+00
8.97491207e+02
1.59781179e+03
1.03638706e+03
1.26826055e+03
1.71804444e+03
1.22313356e+03
1.19404388e+03
1.40958779e+03
1.65870385e+03
1.57907613e+03
1.50463613e+03
1.62943660e+03
1.52776355e+03
1.19035052e+03
1.76794972e+03
1.51361487e+03
1.32011833e+03
1.54258720e+03
8.20455133e+02
0.00000000e+00
0.00000000e+00
0.00000000e+00
1.32720788e+03
9.09463987e+02
1.20249954e+03
1.23395269e+03
1.19568003e+03
1.62100248e+03
1.45906207e+03
9.65191752e+02
1.64342734e+03
1.45839435e+03
1.58287407e+03
1.52919941e+03
9.89508121e+02
1.56351963e+03
1.30265519e+03
1.29502364e+03
1.58212289e+03
0.00000000e+00
0.00000000e+00
0.00000000e+00
9.11388225e+02
1.32965991e+03
9.98105223e+02
1.32370661e+03
1.47961684e+03
1.12027158e+03
1.03987780e+03
1.44251868e+03
1.27145858e+03
1.71486761e+03
1.62823741e+03
1.68010317e+03
1.10339137e+03
1.27446282e+03
1.63438954e+03
1.57654980e+03
1.27258629e+03
1.49207653e+03
9.62000572e+02
0.00000000e+00
0.00000000e+00
8.37838318e+02
1.41139856e+03
1.05328260e+03
1.15440736e+03
1.49814989e+03
1.12967050e+03
1.74536969e+03
1.28521845e+03
1.32535465e+03
1.53636816e+03
9.81793665e+02
1.69419328e+03
1.68652205e+03
9.68791698e+02
1.35959899e+03
1.35190647e+03
1.32222016e+03
1.51073311e+03
0.00000000e+00
1.22438600e+03
0.00000000e+00
9.88192413e+02
1.81834756e+03
9.77102799e+02
1.57025364e+03
1.79038781e+03
1.35020695e+03
1.17274409e+03
1.72039356e+03
1.43247076e+03
1.75909146e+03
1.41927984e+03
1.78355788e+03
1.27687700e+03
1.71636140e+03
1.41586105e+03
1.43052196e+03
1.31666338e+03
1.68601746e+03
1.13916731e+03
1.18071682e+03
0.00000000e+00
8.87228761e+02
1.50535520e+03
1.16168170e+03
1.30253590e+03
1.12240652e+03
9.72699880e+02
1.15514902e+03
1.03603033e+03
1.25925766e+03
1.79806579e+03
1.71464196e+03
1.57419675e+03
8.81451483e+02
8.49776971e+02
1.12044880e+03
1.38742743e+03
1.24432327e+03
1.17185750e+03
1.28814866e+03
1.02601817e+03
9.33331222e+02
1.02231520e+03
1.20690922e+03
1.25137484e+03
1.42318115e+03
1.14263807e+03
1.03658139e+03
9.36338552e+02
1.46652373e+03
9.23959817e+02
1.49498834e+03
1.24617666e+03
1.49574716e+03
5.70417151e+02
1.22784618e+03
1.34859825e+03
1.81837027e+03
1.40554153e+03
1.22568712e+03
1.03000903e+03
1.15627316e+03
9.54109040e+02
1.06739532e+03
1.63475910e+03
1.22476666e+03
1.82399985e+03
1.44244120e+03
1.15855855e+03
9.53639858e+02
1.46393126e+03
1.43676462e+03
1.90786445e+03
1.72193295e+03
1.44562338e+03
1.10426115e+03
1.09926271e+03
1.54313053e+03
1.69402847e+03
1.40566968e+03
1.07500959e+03
7.62651052e+02
0.00000000e+00
8.67912333e+02
1.45005828e+03
1.91474272e+03
1.46062542e+03
1.75758174e+03
1.79936585e+03
1.93015787e+03
9.81558948e+02
1.50608087e+03
1.08552883e+03
1.85887537e+03
1.14062527e+03
1.83829797e+03
1.21163711e+03
1.35100483e+03
1.82862260e+03
1.74967302e+03
1.42135697e+03
1.79216401e+03
8.46274813e+02
0.00000000e+00
1.02539330e+03
8.50021033e+02
1.10015229e+03
1.21691183e+03
1.45831055e+03
1.12798171e+03
1.21812641e+03
9.92453392e+02
6.71869699e+02
7.30312201e+02
7.40428959e+02
1.12651912e+03
1.15903652e+03
1.22750182e+03
1.29167898e+03
1.30233319e+03
1.50220643e+03
1.27152370e+03
1.05024601e+03
5.07126077e+02
0.00000000e+00
8.60043593e+02
9.49235053e+02
1.60537580e+03
1.17888056e+03
1.52667316e+03
1.48575881e+03
1.18763424e+03
1.19618136e+03
1.64666203e+03
1.42768918e+03
1.49978603e+03
1.53604285e+03
1.56375445e+03
1.17923772e+03
1.19855478e+03
1.26958892e+03
1.39094284e+03
1.16000154e+03
1.70292299e+03
8.75368128e+02
0.00000000e+00
8.87081380e+02
1.02901886e+03
1.03122461e+03
1.20802414e+03
1.40878180e+03
1.06160100e+03
1.01842163e+03
7.87755533e+02
0.00000000e+00
6.71256944e+02
5.47404098e+02
0.00000000e+00
0.00000000e+00
5.50624278e+02
1.06824401e+03
1.08670676e+03
1.14294177e+03
8.82516078e+02
1.03650026e+03
5.43472610e+02
0.00000000e+00
0.00000000e+00
0.00000000e+00
0.00000000e+00
0.00000000e+00
0.00000000e+00
8.47933938e+02
9.11511601e+02
0.00000000e+00
0.00000000e+00
0.00000000e+00
0.00000000e+00
0.00000000e+00
0.00000000e+00
0.00000000e+00
0.00000000e+00
9.14449801e+02
0.00000000e+00
0.00000000e+00
0.00000000e+00
0.00000000e+00
0.00000000e+00
0.00000000e+00
1.20203588e+03
0.00000000e+00
1.49401902e+03
9.84660079e+02
9.98800505e+02