# vtk DataFile Version 3.0
MPS 3D Simulation Step 5400
ASCII
DATASET UNSTRUCTURED_GRID
POINTS 20213 double
-1.09033155e-03 3.65200592e-04 -9.46172461e-04
-1.01753466e-03 2.19833662e-04 -9.70580780e-04
-9.00678730e-04 2.51771919e-04 -1.08983564e-03
-8.57725631e-04 2.99510583e-04 -1.13978054e-03
-7.87393105e-04 1.48703271e-04 -1.10699740e-03
-7.44697075e-04 3.65029146e-04 -1.22660311e-03
-5.99545723e-04 1.79011448e-04 -1.22694625e-03
-4.80663018e-04 2.49424598e-04 -1.31681990e-03
-3.46280514e-04 1.32099427e-04 -1.29423717e-03
-3.36268965e-04 7.51607060e-04 -1.13292461e-03
-1.20013897e-04 7.16580519e-04 -1.32788712e-03
-2.12250369e-04 6.46158406e-04 -1.30796705e-03
-1.04823463e-04 3.96818326e-04 -1.32696185e-03
5.79367896e-05 1.78473226e-04 -1.34523864e-03
9.94007772e-05 1.23036036e-04 -1.28974526e-03
5.46394481e-04 1.22531620e-04 -1.18523623e-03
3.76383912e-04 5.77461188e-04 -1.09931707e-03
6.34660578e-04 1.36875455e-04 -1.16664044e-03
7.37226010e-04 3.77876061e-04 -1.10387516e-03
8.74159925e-04 5.70265110e-04 -9.00152776e-04
1.02087401e-03 3.46952121e-04 -8.51120157e-04
-1.05126308e-03 3.00437368e-04 -9.70766117e-04
-9.86109105e-04 2.73336947e-04 -1.02660740e-03
-9.46553385e-04 3.20897374e-04 -1.08011900e-03
-8.18483599e-04 3.68491996e-04 -1.18312163e-03
-7.65114376e-04 5.45654318e-04 -1.23003865e-03
-8.49495264e-04 4.38699504e-04 -1.17154773e-03
-6.91911903e-04 4.15919413e-04 -1.26709052e-03
-4.87467187e-04 3.42112254e-04 -1.34340594e-03
-3.05404672e-04 1.78259614e-04 -1.34092518e-03
-2.36870093e-04 1.19720084e-04 -1.31680439e-03
3.95999901e-05 2.45706862e-04 -1.38949885e-03
1.54409680e-04 1.78922381e-04 -1.33731413e-03
2.86269206e-04 2.04691029e-04 -1.34110505e-03
3.16522466e-04 2.79479786e-04 -1.36199265e-03
3.61877446e-04 2.04770339e-04 -1.32003619e-03
4.72103571e-04 1.48398660e-04 -1.24681487e-03
5.28457046e-04 1.96939353e-04 -1.25475037e-03
5.69118326e-04 2.89470568e-04 -1.16564209e-03
6.03500054e-04 1.95138485e-04 -1.22097242e-03
7.65257613e-04 1.99173688e-04 -1.13838593e-03
9.15162998e-04 1.35145771e-04 -9.69864708e-04
-1.01271587e-03 3.53906520e-04 -1.02619363e-03
-9.64708070e-04 4.02278078e-04 -1.08070041e-03
-9.61438276e-04 5.97851208e-04 -1.07607524e-03
-7.85017432e-04 2.94436550e-04 -1.18443531e-03
-8.96324971e-04 3.69933187e-04 -1.12950531e-03
-7.71687606e-04 4.46826731e-04 -1.22106889e-03
-5.49254956e-04 3.01826632e-04 -1.30769580e-03
-6.17327980e-04 2.69372800e-04 -1.26323040e-03
-3.50501997e-04 3.28583955e-04 -1.38273229e-03
-2.39635398e-04 2.09617520e-04 -1.36858670e-03
-7.38582885e-05 3.76871321e-04 -1.43249555e-03
1.21452187e-04 2.39794049e-04 -1.37523951e-03
2.04759986e-04 3.78948557e-04 -1.40996407e-03
4.02566432e-04 2.75057754e-04 -1.33694493e-03
3.11741269e-04 1.28443002e-04 -1.29022606e-03
4.60105650e-04 3.35677860e-04 -1.33669621e-03
5.83064085e-04 2.64938439e-04 -1.26609717e-03
4.99876306e-04 2.68645838e-04 -1.29953566e-03
7.47901499e-04 2.65430933e-04 -1.18760801e-03
8.36698809e-04 2.01326005e-04 -1.09016383e-03
8.45379733e-04 1.30069467e-04 -1.02880058e-03
-1.10889021e-03 4.45529819e-04 -9.31959947e-04
-1.00489026e-03 4.63222414e-04 -1.04606950e-03
-9.54225174e-04 5.15849067e-04 -1.09112574e-03
-8.29645554e-04 5.13022152e-04 -1.18868882e-03
-7.07295328e-04 4.96012719e-04 -1.26632072e-03
-6.65111699e-04 3.37532372e-04 -1.26608495e-03
-6.03402730e-04 3.68480455e-04 -1.30471680e-03
-2.88808696e-04 2.76825987e-04 -1.38378741e-03
-2.11862957e-04 3.04101093e-04 -1.40479081e-03
-1.75768179e-04 1.53623320e-04 -1.34993834e-03
2.27367493e-05 3.99636165e-04 -1.43109665e-03
-2.31137043e-05 1.73170772e-04 -1.35367700e-03
6.54869233e-05 3.15883244e-04 -1.41250697e-03
1.58925073e-04 3.04863840e-04 -1.39695789e-03
2.99203729e-04 3.67346083e-04 -1.39285978e-03
4.41929017e-04 2.11934558e-04 -1.29571634e-03
5.16493385e-04 4.02268511e-04 -1.33413112e-03
7.99544968e-04 3.35837976e-04 -1.18145570e-03
8.22173791e-04 2.66489330e-04 -1.13696415e-03
8.92955961e-04 2.64920760e-04 -1.07894323e-03
9.61831524e-04 2.69962769e-04 -1.02349549e-03
-1.12579182e-03 5.23332574e-04 -9.05576304e-04
-9.01259604e-04 6.22031853e-04 -1.12563466e-03
-9.15210356e-04 4.53156234e-04 -1.12536998e-03
-7.00167371e-04 5.84166185e-04 -1.26589721e-03
-5.58228654e-04 4.90029894e-04 -1.33550112e-03
-6.25023562e-04 4.53465856e-04 -1.30249409e-03
-2.70203825e-04 3.64099127e-04 -1.40644231e-03
-2.03088105e-04 4.16230664e-04 -1.42529671e-03
-1.55589604e-04 3.53536785e-04 -1.42415221e-03
-4.59601420e-05 4.58185308e-04 -1.44025298e-03
2.41964290e-05 5.01890698e-04 -1.44158154e-03
-1.05170409e-04 2.92680352e-04 -1.40921550e-03
8.59033671e-05 4.54712383e-04 -1.43695642e-03
3.08379500e-04 5.15299249e-04 -1.41565950e-03
1.17633905e-04 3.76872784e-04 -1.42181999e-03
3.74854638e-04 3.47735861e-04 -1.36920446e-03
4.30134179e-04 4.13973774e-04 -1.36750280e-03
6.65901102e-04 2.56546879e-04 -1.22739401e-03
8.72783204e-04 3.33501508e-04 -1.12415100e-03
9.41467147e-04 3.39424759e-04 -1.06878023e-03
9.16193445e-04 4.14199867e-04 -1.10848953e-03
-1.13654954e-03 6.05333347e-04 -8.81880681e-04
-1.01661233e-03 5.49477714e-04 -1.03100266e-03
-8.45725081e-04 6.76121682e-04 -1.15962738e-03
-8.91897448e-04 5.40296963e-04 -1.14191230e-03
-6.33286026e-04 5.34984891e-04 -1.30309668e-03
-4.78455042e-04 4.37181597e-04 -1.36279260e-03
-4.17069226e-04 3.76876413e-04 -1.37433982e-03
-3.40223218e-04 4.16113433e-04 -1.39610180e-03
-1.27694480e-04 4.45289975e-04 -1.43527108e-03
-1.88719284e-04 5.11655999e-04 -1.42860509e-03
-1.07178461e-04 5.30678058e-04 -1.43677132e-03
-1.57920021e-05 3.25613516e-04 -1.42108030e-03
2.63084501e-04 4.40907556e-04 -1.41459376e-03
3.50363165e-04 4.40970712e-04 -1.39652254e-03
2.15612564e-04 2.32485123e-04 -1.36156504e-03
3.32375126e-04 6.52120903e-04 -1.41077617e-03
4.06934752e-04 4.99511634e-04 -1.38948780e-03
5.56054976e-04 3.34929798e-04 -1.30401082e-03
7.23307233e-04 3.29389261e-04 -1.22559963e-03
8.46396525e-04 4.04177850e-04 -1.16228653e-03
1.01952916e-03 4.87868213e-04 -1.02204126e-03
-1.08314026e-03 5.77760495e-04 -9.56723992e-04
-1.06602217e-03 4.99918521e-04 -9.82434728e-04
-9.24637689e-04 6.94869807e-04 -1.09280776e-03
-7.70238467e-04 6.28945797e-04 -1.22070070e-03
-6.31206338e-04 6.19342764e-04 -1.29808705e-03
-4.82873333e-04 5.21955832e-04 -1.36233018e-03
-4.06379728e-04 4.72066200e-04 -1.38286894e-03
-2.65527931e-04 4.59839948e-04 -1.41472440e-03
-3.31704408e-04 5.11848105e-04 -1.40030377e-03
-2.56233767e-04 5.55320187e-04 -1.41638966e-03
-3.44620807e-05 5.62042076e-04 -1.44083719e-03
1.28301451e-04 5.33929563e-04 -1.43771539e-03
1.68775391e-04 4.53234906e-04 -1.42921519e-03
2.23441655e-04 5.15072126e-04 -1.43029151e-03
2.75787011e-04 5.94000545e-04 -1.42472299e-03
5.75325659e-04 4.68400061e-04 -1.32071533e-03
5.42683861e-04 5.43863856e-04 -1.34322403e-03
6.43203444e-04 3.24206913e-04 -1.26275839e-03
6.11020882e-04 3.95572915e-04 -1.29449829e-03
9.54555393e-04 4.85913933e-04 -1.08322977e-03
9.18318119e-04 5.58334070e-04 -1.11960481e-03
-1.14397484e-03 6.82335830e-04 -8.49633908e-04
-1.03344634e-03 6.23341787e-04 -1.00393116e-03
-9.83012042e-04 6.72201937e-04 -1.04369801e-03
-8.34181240e-04 5.95281071e-04 -1.17957174e-03
-5.59405732e-04 5.70109137e-04 -1.33431859e-03
-4.07817943e-04 5.59735813e-04 -1.38225370e-03
-4.08544844e-04 6.49838678e-04 -1.37633599e-03
-3.32828758e-04 5.99745064e-04 -1.39707397e-03
-2.54816974e-04 6.40011739e-04 -1.41064975e-03
-1.78510251e-04 5.99429239e-04 -1.42659981e-03
-9.92315505e-05 6.24199025e-04 -1.43451429e-03
5.42666344e-05 5.80994500e-04 -1.44007008e-03
1.15552914e-04 6.30614445e-04 -1.43980635e-03
1.94323086e-04 5.89658709e-04 -1.43566534e-03
2.57798039e-04 6.80751742e-04 -1.42161597e-03
4.91344326e-04 4.78892677e-04 -1.36024891e-03
4.58555757e-04 5.60846750e-04 -1.37941549e-03
6.19470878e-04 5.48311554e-04 -1.30884912e-03
6.91561531e-04 3.99606280e-04 -1.25902018e-03
8.84185495e-04 4.82397136e-04 -1.14450530e-03
8.82602171e-04 6.32661043e-04 -1.14698042e-03
-1.09097259e-03 6.57285982e-04 -9.27966127e-04
-1.04255063e-03 7.01800072e-04 -9.73956569e-04
-9.89447481e-04 7.49262566e-04 -1.01365242e-03
-6.36558216e-04 7.01775942e-04 -1.28186553e-03
-5.58623132e-04 6.51843528e-04 -1.32537615e-03
-4.82201262e-04 6.04402186e-04 -1.35890130e-03
-4.15279551e-04 7.33069084e-04 -1.35995086e-03
-3.34670100e-04 6.83958016e-04 -1.39005981e-03
-2.59309303e-04 7.25259829e-04 -1.39913579e-03
-1.78378757e-04 6.85683808e-04 -1.41934614e-03
-9.72146769e-05 7.05132496e-04 -1.42856567e-03
-1.38009620e-05 6.46293116e-04 -1.43730603e-03
5.84115460e-05 6.89137499e-04 -1.43568749e-03
1.28171347e-04 7.33234500e-04 -1.42857372e-03
1.82549223e-04 6.73898079e-04 -1.43336171e-03
4.20205330e-04 6.37029158e-04 -1.38699511e-03
4.36099605e-04 7.69670568e-04 -1.35917195e-03
5.09890943e-04 6.20764339e-04 -1.35631752e-03
6.56196523e-04 4.75884819e-04 -1.28627367e-03
7.69443541e-04 4.05301510e-04 -1.21662078e-03
8.50102629e-04 5.52937095e-04 -1.17452224e-03
-1.09556239e-03 7.33086734e-04 -8.98975892e-04
-9.77686032e-04 8.26611819e-04 -9.91892165e-04
-8.67899505e-04 7.46334731e-04 -1.12461806e-03
-7.05119804e-04 6.68172501e-04 -1.25214693e-03
-6.56424439e-04 7.78469432e-04 -1.25363618e-03
-4.85413876e-04 6.90061218e-04 -1.34630774e-03
-4.98480405e-04 7.72104483e-04 -1.32265156e-03
-3.42827985e-04 7.66465831e-04 -1.37247338e-03
-2.73273223e-04 8.10081638e-04 -1.37691926e-03
-1.91126459e-04 7.69297020e-04 -1.40400733e-03
-1.12849492e-04 7.83169471e-04 -1.41388959e-03
-2.17877870e-05 7.33724229e-04 -1.42869454e-03
4.80245453e-05 7.75999258e-04 -1.42124679e-03
1.25897071e-04 8.11217028e-04 -1.40961138e-03
2.13214885e-04 7.58252927e-04 -1.41442809e-03
3.78070694e-04 7.14970017e-04 -1.38827173e-03
5.09522557e-04 7.82963225e-04 -1.32892578e-03
4.73269785e-04 6.96414175e-04 -1.36117453e-03
6.97833127e-04 5.54931953e-04 -1.27157591e-03
8.09908881e-04 4.78252803e-04 -1.19930625e-03
8.44508404e-04 7.08426441e-04 -1.16142772e-03
-1.04056346e-03 7.82981386e-04 -9.42759051e-04
-9.65181069e-04 9.04004937e-04 -9.66633064e-04
[...]
POINT_DATA 20213
SCALARS pressure double 1
LOOKUP_TABLE default
2.02137496e+03
0.00000000e+00
1.39013254e+03
0.00000000e+00
0.00000000e+00
1.21510226e+03
0.00000000e+00
1.41123873e+03
8.69019439e+02
1.31917954e+03
1.30193387e+03
1.35442317e+03
1.12948941e+03
7.30728650e+02
6.93091968e+02
7.92423536e+02
1.28362923e+03
9.45239340e+02
1.19648726e+03
1.13720733e+03
7.79053638e+02
1.85864247e+03
1.60329866e+03
1.59988495e+03
0.00000000e+00
1.06184208e+03
1.17924794e+03
0.00000000e+00
1.28535256e+03
0.00000000e+00
0.00000000e+00
0.00000000e+00
0.00000000e+00
0.00000000e+00
0.00000000e+00
0.00000000e+00
7.24777477e+02
0.00000000e+00
1.19494587e+03
9.62030456e+02
1.01683229e+03
0.00000000e+00
1.86151552e+03
1.65418968e+03
1.20036277e+03
1.20733901e+03
0.00000000e+00
0.00000000e+00
1.39701312e+03
1.27015498e+03
1.14295629e+03
8.63464222e+02
0.00000000e+00
8.25290186e+02
9.45468310e+02
0.00000000e+00
0.00000000e+00
0.00000000e+00
0.00000000e+00
0.00000000e+00
1.22300676e+03
9.68302993e+02
0.00000000e+00
2.01271864e+03
1.69171448e+03
1.42861124e+03
1.11961416e+03
0.00000000e+00
1.31037911e+03
0.00000000e+00
1.04333349e+03
1.08589500e+03
7.48902924e+02
9.56814603e+02
0.00000000e+00
0.00000000e+00
8.93474974e+02
0.00000000e+00
7.54789553e+02
0.00000000e+00
1.13440676e+03
1.18325132e+03
9.95804565e+02
0.00000000e+00
1.79737537e+03
0.00000000e+00
1.37296699e+03
0.00000000e+00
8.95714489e+02
1.04597384e+03
1.08605762e+03
1.06593717e+03
9.53420519e+02
0.00000000e+00
1.07312138e+03
0.00000000e+00
0.00000000e+00
0.00000000e+00
9.37212922e+02
0.00000000e+00
0.00000000e+00
1.20280336e+03
1.02828925e+03
8.81745743e+02
9.03574564e+02
1.48685731e+03
1.58975271e+03
0.00000000e+00
0.00000000e+00
0.00000000e+00
0.00000000e+00
0.00000000e+00
0.00000000e+00
0.00000000e+00
0.00000000e+00
1.24709857e+03
0.00000000e+00
0.00000000e+00
0.00000000e+00
0.00000000e+00
0.00000000e+00
0.00000000e+00
0.00000000e+00
1.30282586e+03
0.00000000e+00
7.03617028e+02
1.54112415e+03
1.74461306e+03
0.00000000e+00
1.12029025e+03
1.00491238e+03
0.00000000e+00
9.06128203e+02
1.12756614e+03
1.08758692e+03
1.25283451e+03
1.26874448e+03
9.95315093e+02
9.10371442e+02
9.00648807e+02
0.00000000e+00
1.05894623e+03
9.10605648e+02
1.16633010e+03
1.09755112e+03
0.00000000e+00
7.67882104e+02
0.00000000e+00
1.33170332e+03
0.00000000e+00
1.01348684e+03
0.00000000e+00
0.00000000e+00
0.00000000e+00
1.04929791e+03
1.31400329e+03
1.31607616e+03
1.30633644e+03
1.07911005e+03
0.00000000e+00
8.91887803e+02
7.14658436e+02
0.00000000e+00
0.00000000e+00
9.47301389e+02
1.16416411e+03
7.78529460e+02
0.00000000e+00
1.18752293e+03
9.97651105e+02
0.00000000e+00
1.15176691e+03
8.57935694e+02
0.00000000e+00
1.05909755e+03
1.12605273e+03
1.18943739e+03
1.34355429e+03
1.32203788e+03
1.19062690e+03
0.00000000e+00
8.50215458e+02
8.41076878e+02
0.00000000e+00
0.00000000e+00
9.22584621e+02
9.92600205e+02
0.00000000e+00
0.00000000e+00
0.00000000e+00
0.00000000e+00
6.87472954e+02
1.18107870e+03
1.28155962e+03
0.00000000e+00
1.07054504e+03
9.60189416e+02
0.00000000e+00
1.15533359e+03
1.18153743e+03
1.14717851e+03
0.00000000e+00
0.00000000e+00
0.00000000e+00
0.00000000e+00
0.00000000e+00
0.00000000e+00
0.00000000e+00
0.00000000e+00
8.74097035e+02
6.28721585e+02
0.00000000e+00
1.10682451e+03
0.00000000e+00
1.14901942e+03
1.24509414e+03
0.00000000e+00
0.00000000e+00
0.00000000e+00
0.00000000e+00
1.02989337e+03
0.00000000e+00
1.10459628e+03
8.79713384e+02
0.00000000e+00
6.81389180e+02
0.00000000e+00
9.14133684e+02
9.11574947e+02
0.00000000e+00
0.00000000e+00
0.00000000e+00
0.00000000e+00
0.00000000e+00
1.04658746e+03
1.22608491e+03
1.15776312e+03
1.05526367e+03
8.05691263e+02
0.00000000e+00
0.00000000e+00
0.00000000e+00
1.06999331e+03
8.51602766e+02
0.00000000e+00
6.22629978e+02
0.00000000e+00
0.00000000e+00
0.00000000e+00
0.00000000e+00
0.00000000e+00
0.00000000e+00
0.00000000e+00
0.00000000e+00
0.00000000e+00
9.81754177e+02
1.02925832e+03
0.00000000e+00
0.00000000e+00
0.00000000e+00
0.00000000e+00
0.00000000e+00
1.01913221e+03
1.01459775e+03
0.00000000e+00
0.00000000e+00
0.00000000e+00
0.00000000e+00
0.00000000e+00
0.00000000e+00
1.10435145e+03
1.00957988e+03
0.00000000e+00
0.00000000e+00
0.00000000e+00
0.00000000e+00
7.16226171e+02
9.50319968e+02
0.00000000e+00
7.39295109e+02
0.00000000e+00
0.00000000e+00
5.58554794e+02
9.96741539e+02
8.44450400e+02
0.00000000e+00
0.00000000e+00
5.76989537e+02
0.00000000e+00
8.53611478e+02
0.00000000e+00
1.00738231e+03
1.07858648e+03
1.07603596e+03
0.00000000e+00
0.00000000e+00
0.00000000e+00
6.75182411e+02
9.77923767e+02
9.09354732e+02
6.33095147e+02
0.00000000e+00
0.00000000e+00
0.00000000e+00
0.00000000e+00
9.59698550e+02
0.00000000e+00
0.00000000e+00
6.19598576e+02
6.61893640e+02
9.38094822e+02
0.00000000e+00
9.62685570e+02
1.09715192e+03
1.07629212e+03
0.00000000e+00
0.00000000e+00
0.00000000e+00
0.00000000e+00
0.00000000e+00
0.00000000e+00
6.81308900e+02
0.00000000e+00
0.00000000e+00
8.66133098e+02
0.00000000e+00
7.66539166e+02
0.00000000e+00
0.00000000e+00
0.00000000e+00
0.00000000e+00
9.13640129e+02
0.00000000e+00
8.58460926e+02
9.66102960e+02
9.35243300e+02
7.65601296e+02
0.00000000e+00
0.00000000e+00
0.00000000e+00
0.00000000e+00
0.00000000e+00
6.43395800e+02
0.00000000e+00
6.78969946e+02
9.92664774e+02
9.01056470e+02
1.09738684e+03
0.00000000e+00
0.00000000e+00
9.64095700e+02
1.00649297e+03
1.00080725e+03
0.00000000e+00
8.23888398e+02
0.00000000e+00
0.00000000e+00
0.00000000e+00
0.00000000e+00
0.00000000e+00
0.00000000e+00
0.00000000e+00
9.91704224e+02
9.01401838e+02
0.00000000e+00
0.00000000e+00
0.00000000e+00
1.06820783e+03
9.59666838e+02
0.00000000e+00
1.14182239e+03
1.14398995e+03
1.35211974e+03
1.19176442e+03
0.00000000e+00
8.20333010e+02
0.00000000e+00
0.00000000e+00
9.64395064e+02
9.25628297e+02
0.00000000e+00
0.00000000e+00
8.75309902e+02
9.55000713e+02
7.90675706e+02
9.08742234e+02
0.00000000e+00
8.01307212e+02
8.80654019e+02
1.08567454e+03
1.18883617e+03
1.40719028e+03
1.32474357e+03
1.46515297e+03
1.22805659e+03
0.00000000e+00
7.09966096e+02
0.00000000e+00
7.33965376e+02
9.71764104e+02
0.00000000e+00
0.00000000e+00
9.52735923e+02
9.73853311e+02
8.71295163e+02
0.00000000e+00
8.22837743e+02
0.00000000e+00
9.48360658e+02
0.00000000e+00
0.00000000e+00
1.06142350e+03
1.32622091e+03
1.40105137e+03
1.28936278e+03
1.34658624e+03
1.04335727e+03
8.06236459e+02
0.00000000e+00
0.00000000e+00
1.01313157e+03
1.09853104e+03
1.06213568e+03
1.03893987e+03
8.67291794e+02
0.00000000e+00
1.04260575e+03
9.96540793e+02
1.05147875e+03
1.00627077e+03
9.19546209e+02
0.00000000e+00
1.19212037e+03
1.25870950e+03
1.31641221e+03
0.00000000e+00
1.03257924e+03
7.89035019e+02
0.00000000e+00
0.00000000e+00
0.00000000e+00
1.50357753e+03
1.80775295e+03
1.64581099e+03
1.27729913e+03
1.33885096e+03
1.17119948e+03
1.27108211e+03
1.22961418e+03
0.00000000e+00
1.11329217e+03
1.55413809e+03
1.44962045e+03
1.14781085e+03
9.46399040e+02
9.17917876e+02
1.52400954e+03
1.17459781e+03
1.30406375e+03
1.26645752e+03
0.00000000e+00
0.00000000e+00
1.98220865e+03
1.22810887e+03
7.20276544e+02
1.93139652e+03
8.77178310e+02
1.42959440e+03
1.22759090e+03
1.05316389e+03
9.66300155e+02
1.71674862e+03
2.36317588e+03
2.31795462e+03
1.10907578e+03
2.31928894e+03
1.96254925e+03
1.33796341e+03
1.32298996e+03
1.28114646e+03
1.46994966e+03
1.27538385e+03
7.86914531e+02
1.89870927e+03
1.10027064e+03
1.10782968e+03
1.56694961e+03
9.52925029e+02
1.26809890e+03
1.90076691e+03
1.28969132e+03
0.00000000e+00
9.79777895e+02
8.45130023e+02
0.00000000e+00
0.00000000e+00
9.51687080e+02
2.21747063e+03
1.08257097e+03
1.20667798e+03
1.21933202e+03
1.38334804e+03
1.16466253e+03
7.16433180e+02
1.88761327e+03
6.82594037e+02
2.21810315e+03
1.33426637e+03
1.22630450e+03
2.39142213e+03
9.87560139e+02
1.23713209e+03
1.06701027e+03
1.68490535e+03
1.18000145e+03
1.39926039e+03
1.42158434e+03
1.55811044e+03
1.15543760e+03
9.19062763e+02
1.62014460e+03
1.28178486e+03
1.30355252e+03
1.75963231e+03
5.82150931e+02
0.00000000e+00
1.12290752e+03
1.64206873e+03
1.60758537e+03
2.24149186e+03
2.02997359e+03
1.22427158e+03
9.02874458e+02
9.49154851e+02
1.85565001e+03
2.08573858e+03
2.48344662e+03
9.38235083e+02
2.20981374e+03
1.25215237e+03
1.99811296e+03
8.73405827e+02
1.28873777e+03
1.41996675e+03
1.13300463e+03
0.00000000e+00
1.80740533e+03
2.25905789e+03
7.31017266e+02
7.94076050e+02
2.21200564e+03
0.00000000e+00
2.14077484e+03
1.55812584e+03
8.24809202e+02
9.75128315e+02
2.21337370e+03
9.99424337e+02
1.44071540e+03
1.43881484e+03
8.96399431e+02
0.00000000e+00
7.40769300e+02
1.26569747e+03
1.08270712e+03
1.40348836e+03
7.38835676e+02
1.63238187e+03
1.49913353e+03
1.14669987e+03
1.38678677e+03
1.60680017e+03
9.49937527e+02
1.81680609e+03
1.39430698e+03
7.12466102e+02
2.48776388e+03
1.07701559e+03
1.71609634e+03
2.50145839e+03
1.21078604e+03
1.14958420e+03
1.45215242e+03
1.31336626e+03
1.08435947e+03
1.08553902e+03
1.12149906e+03
0.00000000e+00
1.64615709e+03
9.05752592e+02
0.00000000e+00
1.33846905e+03
1.40701068e+03
1.81059107e+03
1.06354273e+03
2.02985720e+03
2.00301239e+03
1.64847341e+03
1.51700228e+03
1.24768379e+03
2.41457372e+03
1.29523691e+03
1.66688417e+03
1.85387480e+03
9.99135400e+02
1.01066686e+03
0.00000000e+00
1.00782567e+03
8.18321675e+02
1.44962821e+03
1.78308958e+03
0.00000000e+00
1.20655871e+03
1.96766262e+03
1.60349324e+03
1.13280627e+03
1.99011617e+03
1.54873258e+03
1.26194168e+03
1.31897217e+03
2.34431506e+03
2.46811048e+03
1.38352074e+03
1.13083141e+03
1.14589702e+03
2.16730847e+03
2.24406519e+03
0.00000000e+00
1.02248967e+03
9.28116199e+02
1.35294107e+03
2.06233145e+03
9.60964475e+02
1.06928399e+03
1.18179843e+03
8.11271115e+02
8.89131238e+02
1.02110063e+03
1.76537352e+03
1.15260938e+03
1.05280003e+03
1.19826048e+03
2.15406950e+03
1.17199226e+03
9.25595864e+02
1.19959390e+03
1.07104269e+03
1.12279141e+03
9.90541963e+02
9.30505532e+02
9.36970588e+02
0.00000000e+00
1.53486700e+03
0.00000000e+00
1.26191374e+03
8.87173142e+02
1.15807972e+03
9.70208017e+02
1.29778711e+03
1.37033566e+03
1.87339328e+03
1.30639346e+03
1.94004722e+03
1.51692210e+03
1.88094790e+03
1.38623441e+03
1.19962993e+03
1.79055793e+03
2.52667419e+03
9.13000757e+02
1.39163300e+03
0.00000000e+00
0.00000000e+00
1.22598128e+03
0.00000000e+00
1.08890813e+03
7.52713741e+02
1.04890322e+03
1.04119581e+03
1.07677397e+03
2.31420315e+03
1.62221361e+03
2.31318934e+03
1.53520478e+03
1.64087773e+03
1.19451599e+03
1.57902460e+03
1.40280974e+03
1.17946754e+03
9.17693189e+02
1.02670639e+03
8.04693519e+02
0.00000000e+00
0.00000000e+00
1.54354886e+03
0.00000000e+00
1.45073764e+03
1.85646799e+03
1.01780202e+03
1.31443096e+03
1.83437779e+03
2.42605811e+03
1.37238012e+03
1.58515677e+03
2.18511258e+03
1.58222088e+03
2.40691103e+03
1.46237947e+03
1.28295885e+03
1.36677216e+03
2.29785834e+03
9.12357240e+02
1.92637349e+03
0.00000000e+00
0.00000000e+00
1.09117673e+03
5.20803935e+02
1.54350178e+03
9.60775379e+02
1.09456917e+03
1.27892793e+03
1.25535691e+03
1.89038268e+03
1.10960915e+03
1.29163172e+03
1.12087427e+03
1.40805624e+03
1.15592610e+03
1.39196953e+03
1.16942566e+03
1.27214745e+03
1.49640072e+03
9.81538169e+02
8.75845983e+02
8.35367724e+02
0.00000000e+00
1.19772856e+03
1.17950172e+03
1.26531322e+03
1.45567778e+03
1.30680471e+03
1.72504598e+03
2.32067361e+03
1.63993527e+03
1.18969851e+03
2.04661738e+03
1.21871339e+03
1.22554529e+03
1.15565247e+03
1.36512961e+03
1.59844573e+03
2.11931502e+03
1.04137101e+03
9.52704349e+02
7.28180831e+02
0.00000000e+00
7.56898148e+02
1.32165159e+03
1.32366038e+03
1.15413086e+03
1.10840256e+03
0.00000000e+00
1.28742925e+03
1.19383871e+03
1.04340671e+03
1.32675912e+03
1.39399161e+03
1.66196884e+03
1.48557312e+03
1.30210803e+03
1.32643354e+03
0.00000000e+00
1.86114102e+03
9.75326700e+02
1.49582429e+03
7.96102866e+02
9.40446890e+02
9.34799073e+02
1.44397721e+03
1.50743535e+03
1.11123395e+03
2.12402054e+03
1.13436672e+03
1.27185512e+03
1.15182762e+03
1.74352289e+03
1.20119617e+03
1.29504216e+03
1.31650074e+03
1.51307122e+03
1.42788861e+03
2.34479016e+03
1.42311116e+03
2.53506081e+03
1.15110308e+03
1.82502389e+03
6.78286024e+02
0.00000000e+00
1.03992298e+03
1.21716526e+03
1.07201867e+03
1.27111027e+03
1.06747248e+03
1.66432426e+03
1.30594597e+03
1.18691907e+03
1.42804339e+03
1.22877742e+03
1.32613275e+03
1.22460169e+03
2.17014236e+03
1.86953542e+03
1.40855678e+03
1.11580552e+03
1.27092749e+03
1.60475588e+03
9.11173647e+02
7.94260286e+02
8.48336226e+02
1.07709738e+03
1.21573475e+03
9.46942088e+02
1.00765275e+03
1.41064791e+03
1.24090673e+03
1.01638815e+03
0.00000000e+00
0.00000000e+00
9.86738177e+02
0.00000000e+00
0.00000000e+00
1.08638754e+03
0.00000000e+00
9.46106950e+02
1.33981041e+03
1.10429024e+03
8.80738731e+02
7.19833770e+02
1.41027646e+03
7.27469511e+02
1.04321313e+03
1.78717133e+03
9.39865620e+02
1.48390844e+03
9.76373891e+02
1.38572478e+03
1.24508316e+03
1.05665060e+03
1.22158007e+03
1.14478242e+03
1.64134089e+03
1.35437332e+03
1.96452984e+03
1.04184835e+03
9.26781220e+02
1.01774040e+03
8.61501728e+02
1.25680360e+03
1.08682834e+03
2.25832347e+03
0.00000000e+00
0.00000000e+00
1.02621576e+03
0.00000000e+00
1.04720491e+03
0.00000000e+00
0.00000000e+00
9.74532574e+02
1.06490009e+03
9.91041070e+02
0.00000000e+00
1.09478690e+03
9.90414408e+02
1.07887563e+03
1.14469215e+03
1.08496964e+03
0.00000000e+00
0.00000000e+00
0.00000000e+00
0.00000000e+00
0.00000000e+00
0.00000000e+00
9.58442567e+02
1.13869000e+03
1.54177412e+03
1.17428577e+03
7.30998077e+02
1.03197608e+03
0.00000000e+00
1.24705892e+03
1.18049661e+03
1.07989457e+03
1.06085751e+03
1.39302084e+03
8.40373108e+02
6.38380299e+02
1.05463976e+03
0.00000000e+00
1.18980095e+03
1.09270483e+03
5.52697243e+02
0.00000000e+00
9.96244236e+02
0.00000000e+00
1.34645266e+03
1.04443237e+03
6.35491458e+02
1.18813198e+03
6.49998294e+02
1.24405261e+03
1.28236634e+03
2.03356546e+03
9.65161192e+02
1.13378626e+03
1.17887088e+03
7.26434749e+02
0.00000000e+00
8.82761845e+02
1.48826466e+03
2.25915547e+03
1.63099752e+03
1.38362599e+03
9.07161182e+02
0.00000000e+00
1.68638468e+03
1.14284649e+03
1.98483960e+03
2.09209587e+03
2.28639599e+03
1.59243031e+03
2.23354405e+03
1.03386097e+03
2.24019965e+03
1.04969258e+03
1.29455501e+03
2.13746600e+03
2.14093387e+03
1.52975669e+03
1.51343314e+03
2.01359764e+03
1.60846597e+03
9.01790259e+02
8.25771128e+02
1.07825234e+03
0.00000000e+00
1.50591045e+03
9.03068441e+02
1.57581165e+03
1.32813207e+03
1.61715298e+03
9.57703104e+02
1.33473152e+03
1.39617255e+03
1.95331917e+03
6.84575503e+02
7.90989861e+02
1.60707249e+03
1.53779113e+03
1.32451435e+03
1.14299234e+03
7.68034586e+02
1.50801261e+03
1.79940821e+03
7.83127300e+02
1.80464078e+03
0.00000000e+00
0.00000000e+00
1.66130669e+03
1.47707743e+03
1.13475956e+03
1.37306736e+03
2.13636780e+03
1.46207528e+03
1.54225826e+03
8.64533348e+02
1.37387894e+03
8.53294171e+02
1.33028969e+03
1.21260733e+03
1.15694758e+03
1.98419531e+03
1.24959238e+03
9.88820354e+02
1.20428418e+03
1.98641181e+03
1.05940836e+03
0.00000000e+00
0.00000000e+00
1.43504702e+03
1.81284676e+03
1.51406006e+03
2.10445541e+03
1.76145385e+03
1.37958969e+03
1.38529728e+03
1.37266903e+03
1.26363561e+03
1.06122826e+03
2.09237069e+03
2.24499039e+03
1.17442420e+03
1.13651206e+03
1.98207998e+03
1.43520136e+03
2.06610345e+03
1.55070554e+03
8.14060849e+02
0.00000000e+00
0.00000000e+00
1.50962725e+03
2.27742458e+03
1.12959475e+03
1.85033794e+03
1.63944996e+03
1.47700382e+03
1.70621693e+03
1.63217324e+03
2.22232005e+03
1.24842657e+03
0.00000000e+00
1.52573646e+03
1.29398062e+03
1.74478625e+03
2.51993070e+03
1.42301321e+03
2.15559879e+03
1.02179516e+03
1.20577474e+03
7.73095497e+02
1.50410941e+03
1.29572315e+03
2.22842338e+03
2.05840563e+03
1.96584740e+03
1.84571237e+03
9.47162920e+02
1.42037514e+03
0.00000000e+00
1.26783812e+03
2.17928589e+03
1.53517279e+03
1.11380044e+03
2.22858184e+03
2.15396897e+03
1.43292926e+03
2.03466425e+03
2.36955900e+03
2.14185478e+03
0.00000000e+00
0.00000000e+00
1.32434084e+03
1.11478415e+03
1.23999468e+03
1.23506103e+03
1.89233041e+03
1.64333590e+03
2.26163045e+03
9.88632897e+02
1.73667787e+03
1.64128734e+03
1.95762207e+03
1.19174783e+03
1.79386715e+03
2.38414820e+03
2.41015281e+03
1.05312990e+03
2.55992586e+03
1.81002233e+03
1.78259596e+03
0.00000000e+00
0.00000000e+00
1.02116357e+03
9.48687631e+02
2.10202243e+03
7.45206626e+02
2.22999639e+03
2.29904393e+03
2.05191659e+03
1.26064641e+03
0.00000000e+00
1.91859309e+03
9.98692979e+02
2.38346424e+03
1.10578785e+03
1.24154219e+03
1.58925682e+03
1.75827801e+03
1.32932494e+03
1.24640072e+03
1.85651190e+03
0.00000000e+00
1.08342849e+03
0.00000000e+00
9.27187275e+02
1.45560995e+03
8.67136217e+02
1.88245824e+03
1.91419261e+03
1.47515098e+03
1.22195414e+03
2.37357742e+03
2.31968863e+03
1.26275199e+03
2.39602088e+03
7.14354456e+02
2.26989535e+03
1.75146197e+03
1.78407854e+03
1.01933288e+03
1.00229189e+03
1.28720036e+03
1.00565676e+03
1.13496942e+03
0.00000000e+00
0.00000000e+00
2.35800407e+03
1.09860792e+03
1.76796582e+03
1.26895225e+03
1.49855753e+03
9.05970408e+02
2.28263918e+03
2.12921773e+03
1.52688964e+03
1.56159671e+03
9.39117907e+02
2.55801977e+03
1.48128180e+03
1.54310880e+03
1.21974158e+03
1.47993573e+03
2.47923879e+03
1.11683376e+03
1.15234346e+03
0.00000000e+00
0.00000000e+00
2.35272264e+03
1.32843814e+03
2.13000114e+03
1.72455081e+03
2.28304799e+03
2.11929452e+03
2.41454134e+03
2.04915533e+03
1.49191649e+03
2.20717938e+03
7.97677351e+02
1.90450748e+03
1.88599087e+03
2.46411918e+03
2.54830718e+03
1.05469773e+03
2.53609623e+03
0.00000000e+00
0.00000000e+00
0.00000000e+00
0.00000000e+00
2.31309574e+03
1.27505367e+03
2.39687589e+03
1.39434475e+03
1.40518970e+03
1.56526781e+03
1.45955420e+03
1.79092654e+03
9.16822145e+02
2.46805349e+03
2.63994636e+03
2.17912289e+03
1.31601743e+03
1.45665667e+03
2.35796571e+03
1.75157883e+03
1.07339503e+03
1.08277386e+03
6.92475298e+02
0.00000000e+00
1.75814400e+03
1.63415319e+03
1.53600369e+03
2.09294558e+03
1.74871244e+03
1.44339773e+03
1.12710917e+03
2.14500652e+03
1.78740994e+03
1.51189062e+03
1.96025219e+03
2.35247302e+03
1.41588544e+03
2.22727585e+03
2.36641765e+03
6.28862044e+02
1.56843889e+03
1.91906946e+03
6.75114491e+02
0.00000000e+00
7.93858213e+02
1.34648619e+03
2.16744286e+03
1.71360795e+03
2.28535849e+03
2.37001664e+03
2.18534214e+03
1.47266010e+03
2.47353272e+03
1.89742896e+03
9.45549154e+02
2.58007152e+03
2.60884029e+03
1.63146356e+03
1.90499595e+03
2.63442696e+03
2.55777791e+03
1.86855921e+03
1.36768833e+03
7.47277274e+02
0.00000000e+00
1.04764179e+03
1.86141877e+03
1.35178002e+03
2.29027768e+03
2.42357277e+03
2.24124114e+03
1.39435667e+03
1.35062811e+03
1.87939960e+03
2.29462412e+03
2.32390924e+03
1.60025175e+03
2.04159543e+03
1.43910678e+03
2.63272598e+03
1.40958785e+03
2.67793004e+03
2.11157046e+03
2.38339128e+03
1.26527229e+03
5.71807745e+02
1.04971992e+03
1.05601715e+03
1.31085043e+03
1.15744483e+03
2.41503081e+03
1.95909556e+03
2.09822487e+03
1.76005109e+03
1.11101905e+03
1.08965202e+03
1.20898602e+03
1.14058719e+03
1.14667557e+03
1.24390543e+03
1.58454207e+03
2.23344219e+03
2.22342262e+03
1.96624742e+03
1.77348686e+03
1.00833873e+03
6.49451054e+02
0.00000000e+00
1.12809058e+03
1.89486986e+03
1.83260832e+03
1.45711843e+03
2.47873236e+03
1.43445403e+03
2.01145900e+03
2.48770196e+03
2.52594488e+03
2.58175581e+03
2.41345621e+03
2.60294859e+03
1.50837251e+03
1.59109818e+03
1.91952322e+03
2.31522173e+03
2.41844750e+03
2.44757835e+03
9.40731644e+02
0.00000000e+00
9.21839864e+02
1.17464785e+03
9.27082484e+02
1.59434264e+03
1.91321163e+03
1.65641148e+03
1.36804625e+03
0.00000000e+00
0.00000000e+00
0.00000000e+00
8.81938445e+02
6.42783935e+02
0.00000000e+00
0.00000000e+00
1.16895828e+03
8.78350182e+02
1.58899540e+03
7.92900647e+02
1.95666327e+03
5.90744280e+02
0.00000000e+00
8.49482915e+02
0.00000000e+00
1.06287400e+03
9.11520368e+02
8.29888492e+02
0.00000000e+00
8.60279042e+02
1.04492851e+03
1.00548133e+03
0.00000000e+00
6.40191031e+02
0.00000000e+00
6.91683755e+02
9.56538636e+02
8.87164171e+02
8.90396475e+02
6.67293471e+02
6.39022648e+02
0.00000000e+00
0.00000000e+00
0.00000000e+00
0.00000000e+00
9.28280414e+02
1.22767653e+03
2.06717988e+03
1.02529361e+03
1.07317952e+03