# vtk DataFile Version 3.0
MPS 3D Simulation Step 4300
ASCII
DATASET UNSTRUCTURED_GRID
POINTS 20213 double
-1.04849757e-03 3.45937495e-04 -9.34844844e-04
-9.44352494e-04 2.52475276e-04 -1.00462939e-03
-8.44795941e-04 3.08043946e-04 -1.10268473e-03
-7.76132735e-04 3.21180297e-04 -1.15095200e-03
-7.24611062e-04 1.74983685e-04 -1.11581259e-03
-6.59647480e-04 4.16257432e-04 -1.23692525e-03
-5.41850183e-04 2.27312794e-04 -1.24471083e-03
-4.89821068e-04 3.07377521e-04 -1.29638647e-03
-3.19326248e-04 1.71534181e-04 -1.30192058e-03
-3.01284917e-04 6.28072848e-04 -1.16098414e-03
-6.04840160e-05 5.35816680e-04 -1.31371155e-03
-1.64777364e-04 5.41001674e-04 -1.30769766e-03
-4.44370820e-05 1.43000350e-04 -1.21283870e-03
1.17867622e-04 1.18274417e-04 -1.27759830e-03
2.09800483e-04 1.32537705e-04 -1.27977214e-03
5.35684221e-04 1.50351863e-04 -1.20877826e-03
4.25899548e-04 4.16473593e-04 -1.22506533e-03
6.04099651e-04 1.58627475e-04 -1.18800541e-03
6.92384996e-04 2.37597418e-04 -1.04231152e-03
8.64526938e-04 3.74531258e-04 -9.73643934e-04
9.65098273e-04 1.39145471e-04 -7.60360597e-04
-9.90097723e-04 3.19929741e-04 -9.88747768e-04
-9.13845626e-04 3.12010351e-04 -1.05187853e-03
-8.71635519e-04 3.79019778e-04 -1.10059005e-03
-7.25676313e-04 3.80638943e-04 -1.19361308e-03
-7.18620980e-04 5.67689838e-04 -1.20811400e-03
-7.50521245e-04 4.55814501e-04 -1.18772986e-03
-6.01630545e-04 4.68554686e-04 -1.27527408e-03
-4.21178317e-04 3.53066497e-04 -1.33883331e-03
-2.47481396e-04 2.02915285e-04 -1.33593536e-03
-1.76965967e-04 1.56110011e-04 -1.32040633e-03
5.30449486e-05 1.80184259e-04 -1.33553482e-03
1.47482253e-04 1.86094412e-04 -1.32899376e-03
3.05574487e-04 2.26958507e-04 -1.32243609e-03
3.18889650e-04 3.02395323e-04 -1.35183218e-03
3.74363922e-04 1.77199401e-04 -1.27662572e-03
4.50928214e-04 1.93189981e-04 -1.26431873e-03
5.23561748e-04 2.23167102e-04 -1.25162894e-03
5.42635032e-04 1.20048666e-04 -1.09741168e-03
5.95002279e-04 2.38821095e-04 -1.22788579e-03
7.24075389e-04 1.94507699e-04 -1.13882592e-03
9.16387054e-04 1.49853921e-04 -9.45336987e-04
-9.48146988e-04 3.82031967e-04 -1.04101207e-03
-9.05653442e-04 4.47134271e-04 -1.08573093e-03
-9.27323745e-04 6.02421986e-04 -1.06135667e-03
-7.37576563e-04 2.46395907e-04 -1.14802825e-03
-8.05129285e-04 3.99745926e-04 -1.14794522e-03
-6.85995030e-04 4.95786529e-04 -1.22668374e-03
-5.63663391e-04 3.04051774e-04 -1.26222798e-03
-6.39311113e-04 3.37080984e-04 -1.23460884e-03
-3.42396790e-04 3.18081162e-04 -1.35626878e-03
-1.74257741e-04 2.35103395e-04 -1.36458167e-03
-2.73718113e-05 4.02755240e-04 -1.41131065e-03
8.97067450e-05 2.36962711e-04 -1.36299577e-03
2.16486877e-04 3.70721352e-04 -1.38620821e-03
3.93216665e-04 3.28688947e-04 -1.33897082e-03
2.88994759e-04 1.55147596e-04 -1.28402733e-03
4.69218808e-04 3.47781517e-04 -1.31699801e-03
5.44179211e-04 3.03044081e-04 -1.27253674e-03
4.61855054e-04 2.69183603e-04 -1.29376912e-03
7.19952352e-04 2.72128465e-04 -1.17663591e-03
7.93988993e-04 1.83358457e-04 -1.08322964e-03
7.92490494e-04 1.20618066e-04 -1.00999791e-03
-1.07319423e-03 4.23747708e-04 -9.17231390e-04
-9.70880912e-04 4.61725342e-04 -1.02912231e-03
-9.15307729e-04 5.26002563e-04 -1.07626761e-03
-7.81424596e-04 5.26665459e-04 -1.17023330e-03
-6.28492740e-04 5.44105666e-04 -1.26448078e-03
-5.78126194e-04 3.87287151e-04 -1.27653784e-03
-5.02562609e-04 3.85626188e-04 -1.31263329e-03
-2.59624608e-04 2.79926135e-04 -1.36601622e-03
-1.80126075e-04 3.11486715e-04 -1.39025211e-03
-1.06098399e-04 1.99922700e-04 -1.35184184e-03
5.14289494e-05 4.55387013e-04 -1.41226748e-03
1.27660587e-05 1.19663055e-04 -1.29128771e-03
6.25207779e-05 3.00910398e-04 -1.38710491e-03
1.44144668e-04 3.28276389e-04 -1.38612533e-03
2.95950542e-04 3.77283950e-04 -1.37230500e-03
3.83855722e-04 2.49381144e-04 -1.31190730e-03
5.19675019e-04 4.59429426e-04 -1.31797011e-03
7.67278299e-04 3.35824103e-04 -1.16861028e-03
7.87477466e-04 2.54908968e-04 -1.12611650e-03
8.48883244e-04 2.32437309e-04 -1.06791461e-03
9.16506432e-04 2.39520162e-04 -1.01738696e-03
-1.08074330e-03 5.14550513e-04 -9.03053141e-04
-8.65856203e-04 6.38213946e-04 -1.10493617e-03
-8.38892292e-04 4.75822587e-04 -1.13206449e-03
-6.58161676e-04 6.14435327e-04 -1.24626812e-03
-4.73641380e-04 5.15940230e-04 -1.33729924e-03
-5.30247736e-04 4.66477816e-04 -1.31116176e-03
-2.65537415e-04 3.54035870e-04 -1.38743927e-03
-1.86001200e-04 3.91972288e-04 -1.40378228e-03
-1.03236923e-04 3.51500138e-04 -1.40218749e-03
-3.34456220e-05 4.85717891e-04 -1.41735283e-03
3.53852454e-05 5.36443821e-04 -1.41497996e-03
-2.04680656e-05 3.23771999e-04 -1.39721467e-03
1.28202643e-04 4.94140557e-04 -1.40475955e-03
2.84811502e-04 5.39693525e-04 -1.38476956e-03
1.38264767e-04 4.11137888e-04 -1.39994613e-03
3.71892578e-04 4.03290887e-04 -1.36050516e-03
4.48112634e-04 4.25063433e-04 -1.33955589e-03
6.52992137e-04 2.94175813e-04 -1.22037352e-03
8.39508762e-04 3.16585617e-04 -1.11272036e-03
9.01162286e-04 3.08660136e-04 -1.06004375e-03
8.85266075e-04 3.87907046e-04 -1.09517946e-03
-1.08664675e-03 6.05243003e-04 -8.85427606e-04
-9.80782030e-04 5.43287794e-04 -1.01871658e-03
-8.01722918e-04 6.87587987e-04 -1.14115654e-03
-8.53884630e-04 5.57383364e-04 -1.12167126e-03
-5.53773473e-04 5.50434022e-04 -1.30235659e-03
-3.73808888e-04 4.68881238e-04 -1.37144343e-03
-3.48522193e-04 3.95384738e-04 -1.37419183e-03
-2.71603333e-04 4.31570421e-04 -1.39605758e-03
-1.09468814e-04 4.33785764e-04 -1.41497979e-03
-1.25825432e-04 5.13270380e-04 -1.41730971e-03
-6.19702139e-05 5.64909381e-04 -1.42023194e-03
5.90441460e-05 3.77410991e-04 -1.40447818e-03
2.21873417e-04 4.52219533e-04 -1.39068447e-03
3.05711376e-04 4.61378439e-04 -1.38069070e-03
1.70321844e-04 2.58071592e-04 -1.36273552e-03
3.44912557e-04 6.38582683e-04 -1.36913209e-03
3.86661529e-04 4.87445236e-04 -1.36421369e-03
5.41139696e-04 3.83302639e-04 -1.29563238e-03
7.01971738e-04 3.60623318e-04 -1.21201527e-03
8.15030617e-04 3.93535562e-04 -1.14974106e-03
9.85239680e-04 4.79985461e-04 -1.02430284e-03
-1.03430306e-03 5.73413166e-04 -9.55237389e-04
-1.02930621e-03 4.86097341e-04 -9.66410878e-04
-8.78070351e-04 7.17292761e-04 -1.08483837e-03
-7.26634901e-04 6.51182585e-04 -1.19743473e-03
-5.83890127e-04 6.28343160e-04 -1.28415910e-03
-4.00281360e-04 5.42118063e-04 -1.36354184e-03
-3.01734322e-04 5.06422477e-04 -1.39140583e-03
-1.96648807e-04 4.74989214e-04 -1.40654748e-03
-2.33494180e-04 5.47437318e-04 -1.40482852e-03
-1.60928484e-04 5.87535758e-04 -1.41302793e-03
4.22514534e-06 6.09263769e-04 -1.41800096e-03
1.11289089e-04 5.75075239e-04 -1.40647024e-03
2.02266085e-04 5.33731129e-04 -1.39464433e-03
1.84289835e-04 6.14681507e-04 -1.39634741e-03
2.67415492e-04 6.22451567e-04 -1.38192075e-03
5.69204007e-04 5.17519256e-04 -1.30069481e-03
5.16221417e-04 5.79814390e-04 -1.32122912e-03
6.14212421e-04 3.55146255e-04 -1.25548606e-03
6.03981047e-04 4.36561894e-04 -1.27543944e-03
9.16539478e-04 4.64977463e-04 -1.08125470e-03
8.66051630e-04 5.41758249e-04 -1.12212331e-03
-1.09215565e-03 6.94012188e-04 -8.69139180e-04
-9.87553688e-04 6.26202856e-04 -1.00390390e-03
-9.39322289e-04 6.81656730e-04 -1.04225710e-03
-7.92869315e-04 6.07546323e-04 -1.15866735e-03
-4.97140965e-04 6.00476754e-04 -1.32736742e-03
-3.30667313e-04 5.84873600e-04 -1.38074457e-03
-3.55691434e-04 6.60885697e-04 -1.36685592e-03
-2.56498719e-04 6.25139203e-04 -1.39612122e-03
-1.85680596e-04 6.68110699e-04 -1.40105506e-03
-9.71181870e-05 6.40942225e-04 -1.41430581e-03
-2.71992260e-05 6.82999321e-04 -1.41247098e-03
7.58425787e-05 6.47221823e-04 -1.40942411e-03
1.45201764e-04 6.91295448e-04 -1.39647050e-03
2.29223384e-04 6.97570044e-04 -1.38086244e-03
3.09135007e-04 7.15396576e-04 -1.36354495e-03
4.62327986e-04 5.16048815e-04 -1.34193424e-03
4.32999309e-04 5.90580161e-04 -1.35060096e-03
6.00808942e-04 5.91356869e-04 -1.28563154e-03
6.76623899e-04 4.32274974e-04 -1.23683146e-03
8.45028398e-04 4.63500206e-04 -1.13530962e-03
8.51185159e-04 6.80099744e-04 -1.12500641e-03
-1.04045285e-03 6.56546645e-04 -9.40331366e-04
-9.96160087e-04 7.13627743e-04 -9.81653491e-04
-9.42223661e-04 7.64167695e-04 -1.02385146e-03
-5.91220627e-04 7.10325546e-04 -1.27152639e-03
-5.18232914e-04 6.74652556e-04 -1.31221595e-03
-4.24972330e-04 6.19818298e-04 -1.35336674e-03
-3.69114998e-04 7.40607625e-04 -1.34911863e-03
-2.84118970e-04 6.99529263e-04 -1.37847537e-03
-2.12077850e-04 7.45844664e-04 -1.38269521e-03
-1.19719752e-04 7.21555985e-04 -1.39935772e-03
-4.57790037e-05 7.58518138e-04 -1.39702117e-03
4.49895930e-05 7.21023290e-04 -1.40477246e-03
1.14142170e-04 7.64152401e-04 -1.39124527e-03
1.95358165e-04 7.74998525e-04 -1.37656738e-03
2.77884890e-04 7.88974809e-04 -1.35809273e-03
4.09454882e-04 6.74375225e-04 -1.34834445e-03
4.36873591e-04 8.18055150e-04 -1.30584468e-03
4.88079118e-04 6.53779818e-04 -1.32514476e-03
6.44763272e-04 5.13293175e-04 -1.26150390e-03
7.54067108e-04 4.36138224e-04 -1.19230699e-03
8.18941756e-04 5.96370833e-04 -1.15405186e-03
-1.04715608e-03 7.43688293e-04 -9.16296147e-04
-9.44908903e-04 8.42400735e-04 -9.98263766e-04
-8.17465668e-04 7.67411109e-04 -1.11691121e-03
-6.60452922e-04 6.93158120e-04 -1.23280942e-03
-6.06501966e-04 7.84119982e-04 -1.24330334e-03
-4.43382862e-04 6.98973804e-04 -1.33523785e-03
-4.46936424e-04 7.83218817e-04 -1.31236330e-03
-2.95044645e-04 7.80226862e-04 -1.35882545e-03
-2.26667845e-04 8.27988546e-04 -1.35658889e-03
-1.42705217e-04 7.98274571e-04 -1.37701868e-03
-6.73928924e-05 8.33468937e-04 -1.37536759e-03
2.87289014e-05 8.00069011e-04 -1.39014901e-03
1.02962493e-04 8.39667975e-04 -1.37694344e-03
1.78368708e-04 8.54754150e-04 -1.36110030e-03
2.55401419e-04 8.64686321e-04 -1.34417339e-03
3.81950674e-04 7.51779189e-04 -1.34034894e-03
5.18052234e-04 8.15956229e-04 -1.27589208e-03
4.64269870e-04 7.36137498e-04 -1.31718546e-03
6.75958805e-04 5.94469536e-04 -1.24642548e-03
7.86566508e-04 5.12886870e-04 -1.17597817e-03
8.34017948e-04 7.57529034e-04 -1.12501928e-03
-1.00099442e-03 7.97559668e-04 -9.56553092e-04
-9.28145881e-04 9.22566206e-04 -9.78094338e-04
[...]
POINT_DATA 20213
SCALARS pressure double 1
LOOKUP_TABLE default
0.00000000e+00
1.16861490e+03
1.22246022e+03
0.00000000e+00
0.00000000e+00
0.00000000e+00
0.00000000e+00
0.00000000e+00
0.00000000e+00
1.29037150e+03
9.90887186e+02
1.01066726e+03
9.07854506e+02
8.64126118e+02
9.28043213e+02
0.00000000e+00
8.19847370e+02
0.00000000e+00
5.52597472e+02
5.23061221e+02
7.24593028e+02
0.00000000e+00
1.28197388e+03
1.33112972e+03
8.27234232e+02
9.68375399e+02
0.00000000e+00
8.75602084e+02
9.35640255e+02
0.00000000e+00
0.00000000e+00
0.00000000e+00
9.83676677e+02
8.79919777e+02
0.00000000e+00
0.00000000e+00
0.00000000e+00
8.34146597e+02
7.13589385e+02
7.59535367e+02
0.00000000e+00
5.99329872e+02
1.24215883e+03
1.24514946e+03
8.93359940e+02
0.00000000e+00
1.08756678e+03
8.81405938e+02
7.08742324e+02
7.56144538e+02
1.08300505e+03
0.00000000e+00
0.00000000e+00
9.74285422e+02
0.00000000e+00
0.00000000e+00
9.14938498e+02
6.50887621e+02
0.00000000e+00
7.94432404e+02
0.00000000e+00
0.00000000e+00
4.94200858e+02
0.00000000e+00
1.16689723e+03
1.07491026e+03
1.04385586e+03
9.22430307e+02
0.00000000e+00
0.00000000e+00
0.00000000e+00
0.00000000e+00
8.56629057e+02
7.59685611e+02
8.23961563e+02
9.46257668e+02
8.93864829e+02
6.36506845e+02
7.31944532e+02
0.00000000e+00
0.00000000e+00
0.00000000e+00
0.00000000e+00
0.00000000e+00
6.34925977e+02
0.00000000e+00
1.08722910e+03
0.00000000e+00
0.00000000e+00
0.00000000e+00
0.00000000e+00
0.00000000e+00
8.19213404e+02
8.35044124e+02
7.50839378e+02
7.46608968e+02
0.00000000e+00
0.00000000e+00
0.00000000e+00
0.00000000e+00
0.00000000e+00
0.00000000e+00
0.00000000e+00
0.00000000e+00
0.00000000e+00
0.00000000e+00
9.84300336e+02
7.32496992e+02
0.00000000e+00
9.06506612e+02
8.10389287e+02
0.00000000e+00
0.00000000e+00
0.00000000e+00
7.29484926e+02
0.00000000e+00
0.00000000e+00
0.00000000e+00
0.00000000e+00
1.03730542e+03
7.36200942e+02
0.00000000e+00
6.17600063e+02
0.00000000e+00
0.00000000e+00
0.00000000e+00
7.60031779e+02
1.03442052e+03
0.00000000e+00
9.42407103e+02
0.00000000e+00
0.00000000e+00
7.38743090e+02
8.42346474e+02
7.55948560e+02
0.00000000e+00
0.00000000e+00
7.95760289e+02
0.00000000e+00
7.90644782e+02
0.00000000e+00
0.00000000e+00
0.00000000e+00
6.63077636e+02
0.00000000e+00
0.00000000e+00
0.00000000e+00
0.00000000e+00
0.00000000e+00
0.00000000e+00
8.51852306e+02
7.52019888e+02
0.00000000e+00
0.00000000e+00
0.00000000e+00
0.00000000e+00
0.00000000e+00
6.69220386e+02
6.89155602e+02
6.82509376e+02
8.37340777e+02
8.69931731e+02
0.00000000e+00
0.00000000e+00
0.00000000e+00
0.00000000e+00
0.00000000e+00
0.00000000e+00
0.00000000e+00
0.00000000e+00
0.00000000e+00
0.00000000e+00
0.00000000e+00
0.00000000e+00
0.00000000e+00
0.00000000e+00
0.00000000e+00
9.18972087e+02
8.32044620e+02
0.00000000e+00
0.00000000e+00
0.00000000e+00
9.86891092e+02
6.25267325e+02
0.00000000e+00
0.00000000e+00
0.00000000e+00
0.00000000e+00
0.00000000e+00
0.00000000e+00
7.52391704e+02
0.00000000e+00
0.00000000e+00
0.00000000e+00
0.00000000e+00
0.00000000e+00
0.00000000e+00
1.07235947e+03
9.04367980e+02
0.00000000e+00
0.00000000e+00
0.00000000e+00
7.20105490e+02
0.00000000e+00
9.05269826e+02
0.00000000e+00
0.00000000e+00
0.00000000e+00
0.00000000e+00
8.69514780e+02
0.00000000e+00
6.95280285e+02
0.00000000e+00
0.00000000e+00
0.00000000e+00
0.00000000e+00
0.00000000e+00
0.00000000e+00
1.15649493e+03
9.41130855e+02
1.06209083e+03
0.00000000e+00
0.00000000e+00
0.00000000e+00
1.02518801e+03
1.06055229e+03
8.75542251e+02
0.00000000e+00
0.00000000e+00
0.00000000e+00
5.07938128e+02
8.47608694e+02
9.39346044e+02
0.00000000e+00
0.00000000e+00
0.00000000e+00
0.00000000e+00
9.48781555e+02
0.00000000e+00
1.17254923e+03
1.15509528e+03
1.00541709e+03
0.00000000e+00
9.11631223e+02
9.41007997e+02
1.12779731e+03
0.00000000e+00
0.00000000e+00
0.00000000e+00
0.00000000e+00
0.00000000e+00
9.78922990e+02
8.71782831e+02
0.00000000e+00
0.00000000e+00
6.87685880e+02
8.89146509e+02
1.09234205e+03
0.00000000e+00
1.16245818e+03
1.23696497e+03
0.00000000e+00
0.00000000e+00
8.23296322e+02
0.00000000e+00
1.09453597e+03
8.14525228e+02
0.00000000e+00
0.00000000e+00
0.00000000e+00
0.00000000e+00
8.43515769e+02
9.44000664e+02
7.28457614e+02
0.00000000e+00
0.00000000e+00
0.00000000e+00
9.57892633e+02
9.99317614e+02
1.12054548e+03
1.11675896e+03
1.20189521e+03
1.11757898e+03
8.83587698e+02
9.11182666e+02
7.53920000e+02
6.60741490e+02
0.00000000e+00
0.00000000e+00
0.00000000e+00
0.00000000e+00
7.55032142e+02
8.77081283e+02
8.86563286e+02
8.27395428e+02
9.58464192e+02
6.71040967e+02
7.44068776e+02
0.00000000e+00
8.32390238e+02
0.00000000e+00
1.16864800e+03
1.22991158e+03
1.12472591e+03
9.53591933e+02
0.00000000e+00
0.00000000e+00
0.00000000e+00
0.00000000e+00
0.00000000e+00
0.00000000e+00
0.00000000e+00
0.00000000e+00
8.42125168e+02
8.89251696e+02
0.00000000e+00
7.34324068e+02
0.00000000e+00
0.00000000e+00
0.00000000e+00
0.00000000e+00
8.62105191e+02
9.52140283e+02
9.54292064e+02
0.00000000e+00
9.04535000e+02
7.66192078e+02
5.32959421e+02
0.00000000e+00
0.00000000e+00
0.00000000e+00
0.00000000e+00
0.00000000e+00
8.18607903e+02
8.53555374e+02
1.00677585e+03
0.00000000e+00
9.79035637e+02
9.92785145e+02
7.62888142e+02
0.00000000e+00
8.06372947e+02
0.00000000e+00
8.67113707e+02
0.00000000e+00
0.00000000e+00
0.00000000e+00
0.00000000e+00
0.00000000e+00
0.00000000e+00
5.58839208e+02
5.01074015e+02
0.00000000e+00
0.00000000e+00
0.00000000e+00
0.00000000e+00
9.79966142e+02
0.00000000e+00
1.05982632e+03
8.01307846e+02
0.00000000e+00
7.47134891e+02
0.00000000e+00
0.00000000e+00
0.00000000e+00
0.00000000e+00
0.00000000e+00
0.00000000e+00
0.00000000e+00
0.00000000e+00
0.00000000e+00
0.00000000e+00
7.70375543e+02
6.53915701e+02
6.89904501e+02
0.00000000e+00
7.00145087e+02
9.40291300e+02
9.25769391e+02
1.10137512e+03
1.02246554e+03
0.00000000e+00
0.00000000e+00
0.00000000e+00
0.00000000e+00
0.00000000e+00
0.00000000e+00
0.00000000e+00
0.00000000e+00
5.16431031e+02
0.00000000e+00
0.00000000e+00
0.00000000e+00
0.00000000e+00
8.66776448e+02
8.30761262e+02
0.00000000e+00
0.00000000e+00
1.06088434e+03
1.24015038e+03
1.14453994e+03
9.03041745e+02
0.00000000e+00
0.00000000e+00
0.00000000e+00
0.00000000e+00
0.00000000e+00
0.00000000e+00
0.00000000e+00
0.00000000e+00
4.81386361e+02
0.00000000e+00
0.00000000e+00
0.00000000e+00
0.00000000e+00
8.69269519e+02
1.07859620e+03
9.67263856e+02
0.00000000e+00
8.91512162e+02
1.16792742e+03
1.31776254e+03
1.00074756e+03
0.00000000e+00
0.00000000e+00
0.00000000e+00
0.00000000e+00
0.00000000e+00
0.00000000e+00
0.00000000e+00
4.74547556e+02
0.00000000e+00
0.00000000e+00
0.00000000e+00
0.00000000e+00
7.20621027e+02
9.66802865e+02
9.89449073e+02
9.00798085e+02
9.67867069e+02
9.03266257e+02
0.00000000e+00
9.19605055e+02
8.64245523e+02
1.09074745e+03
9.13685967e+02
0.00000000e+00
5.80876434e+02
0.00000000e+00
1.07809827e+03
1.34320044e+03
1.42499096e+03
1.25754733e+03
9.84232684e+02
7.32526901e+02
1.01507912e+03
1.35590196e+03
0.00000000e+00
1.00931132e+03
8.50175860e+02
6.48707406e+02
0.00000000e+00
0.00000000e+00
2.25410280e+03
1.01440147e+03
1.86640211e+03
8.29488745e+02
1.56513106e+03
1.34925812e+03
1.35543217e+03
1.08773565e+03
1.48318662e+03
2.10145341e+03
1.92366367e+03
7.41168734e+02
2.05202815e+03
1.80645195e+03
9.21578598e+02
9.13447273e+02
6.99687947e+02
1.23858870e+03
1.07877054e+03
0.00000000e+00
0.00000000e+00
1.15080708e+03
1.15242053e+03
1.58353623e+03
7.94400815e+02
2.45175456e+03
1.39257170e+03
1.03347048e+03
8.11349340e+02
7.48713361e+02
8.62303477e+02
0.00000000e+00
8.20775642e+02
0.00000000e+00
2.08907434e+03
5.75698332e+02
1.14599892e+03
9.54189452e+02
1.11598872e+03
1.05500956e+03
5.50246671e+02
6.70278057e+02
9.38336223e+02
2.16829736e+03
2.30049982e+03
1.70636996e+03
2.68700959e+03
1.17672641e+03
1.27533829e+03
6.89605375e+02
2.36737842e+03
1.02755126e+03
1.26769747e+03
1.19798413e+03
1.26358170e+03
9.89482524e+02
8.04510843e+02
1.21491799e+03
2.00109203e+03
1.07686356e+03
1.35855377e+03
0.00000000e+00
0.00000000e+00
1.18570085e+03
1.10700833e+03
1.32581405e+03
2.28102787e+03
1.62340626e+03
1.61205365e+03
1.20989814e+03
1.12871740e+03
1.48867584e+03
1.60914594e+03
2.44529003e+03
8.02732063e+02
2.37406074e+03
1.58397267e+03
1.83158946e+03
1.17056235e+03
1.00904830e+03
1.22269136e+03
9.41558793e+02
0.00000000e+00
6.54119862e+02
2.45125004e+03
9.55020588e+02
8.71608168e+02
2.31001689e+03
7.38853847e+02
1.77074026e+03
1.43466378e+03
1.24417828e+03
1.07307128e+03
1.70003388e+03
8.57142422e+02
1.36583436e+03
1.05555751e+03
1.02619152e+03
6.51043978e+02
1.56765185e+03
9.16117515e+02
9.13229650e+02
1.27149127e+03
0.00000000e+00
0.00000000e+00
1.48623236e+03
1.16921273e+03
1.18790791e+03
1.49533527e+03
9.00542980e+02
1.34422485e+03
1.24682970e+03
1.31058842e+03
2.24804973e+03
1.04197255e+03
1.27587211e+03
2.27781960e+03
1.18926966e+03
6.98645463e+02
1.19429586e+03
9.44132087e+02
6.97344879e+02
5.15352951e+02
1.04925179e+03
0.00000000e+00
0.00000000e+00
9.62635565e+02
0.00000000e+00
1.19211595e+03
1.23951246e+03
1.49472462e+03
1.21252579e+03
1.73676064e+03
1.71823446e+03
1.34360058e+03
1.02860007e+03
1.02018932e+03
2.28357367e+03
1.09468906e+03
1.38260357e+03
1.78557038e+03
8.91008048e+02
9.36151611e+02
0.00000000e+00
1.06893921e+03
4.82679801e+02
0.00000000e+00
1.76857444e+03
3.65881773e+02
1.76866645e+03
2.53168176e+03
1.21955317e+03
1.30436121e+03
1.40567922e+03
1.50440929e+03
2.19787687e+03
1.27592288e+03
2.14610767e+03
2.43716538e+03
1.03824766e+03
7.38645332e+02
5.87852130e+02
1.87180642e+03
1.75575455e+03
0.00000000e+00
1.17688026e+03
6.68390224e+02
0.00000000e+00
1.88297492e+03
8.64352858e+02
9.57213836e+02
1.07302810e+03
1.02596174e+03
9.66378930e+02
6.26067604e+02
1.35725408e+03
1.18224368e+03
1.33302882e+03
1.14049162e+03
2.02268832e+03
7.05740666e+02
7.97245434e+02
7.70632539e+02
7.29805056e+02
1.08952084e+03
0.00000000e+00
1.09627037e+03
8.88023766e+02
0.00000000e+00
1.42029410e+03
0.00000000e+00
1.18869602e+03
1.00670101e+03
9.77664151e+02
7.56166998e+02
1.07300092e+03
1.01317335e+03
1.28581477e+03
9.36106720e+02
1.77770073e+03
2.31911075e+03
1.71152975e+03
7.27678637e+02
7.38067708e+02
1.28234398e+03
2.10177545e+03
0.00000000e+00
1.24857723e+03
0.00000000e+00
8.96503797e+02
1.21313777e+03
0.00000000e+00
1.09176586e+03
1.01931718e+03
8.87844217e+02
7.05522064e+02
8.04207915e+02
2.38366799e+03
1.15947310e+03
1.96527395e+03
1.31871802e+03
1.40874385e+03
6.91025229e+02
1.24269121e+03
9.24558990e+02
8.72203750e+02
9.62795070e+02
0.00000000e+00
9.34009349e+02
0.00000000e+00
7.91501838e+02
1.55059450e+03
0.00000000e+00
1.29696144e+03
1.75989349e+03
9.83524952e+02
7.67310149e+02
1.46472746e+03
2.55957191e+03
8.43720225e+02
1.15961726e+03
2.18271312e+03
2.47826620e+03
2.05733629e+03
8.07063696e+02
1.03720327e+03
1.07451039e+03
1.85363971e+03
0.00000000e+00
1.38704445e+03
8.11857899e+02
9.36565443e+02
1.06883752e+03
0.00000000e+00
1.37865023e+03
9.09266789e+02
6.55544256e+02
7.66371600e+02
8.17895057e+02
1.55840277e+03
4.89118193e+02
7.92384008e+02
5.80701933e+02
9.56850836e+02
8.92110707e+02
7.12246249e+02
1.03329153e+03
1.03745282e+03
1.17147604e+03
7.43879554e+02
1.06586427e+03
0.00000000e+00
0.00000000e+00
1.18718377e+03
1.15105500e+03
1.13145444e+03
1.13493012e+03
7.60960859e+02
1.27801299e+03
2.12343395e+03
8.72449503e+02
5.59587766e+02
1.60065016e+03
6.50547081e+02
6.66881590e+02
6.97524575e+02
9.74268870e+02
1.13139444e+03
1.58827170e+03
1.08054793e+03
1.21772716e+03
1.08629924e+03
9.43358140e+02
0.00000000e+00
1.29736619e+03
1.32550584e+03
9.07653476e+02
4.93275953e+02
7.61096105e+02
8.53384836e+02
3.55956602e+02
4.99018607e+02
6.34543435e+02
8.83596978e+02
1.28285835e+03
9.09779569e+02
6.64784439e+02
7.05956852e+02
0.00000000e+00
1.31670874e+03
9.61733817e+02
1.25887118e+03
1.05185180e+03
1.17374303e+03
6.97671488e+02
1.35230884e+03
1.40071780e+03
8.21001146e+02
2.20406065e+03
3.99912192e+02
7.86267558e+02
3.70222473e+02
1.23979747e+03
4.36397262e+02
6.89748058e+02
5.93852829e+02
1.30991063e+03
9.80723402e+02
1.77834189e+03
1.00493297e+03
2.10006688e+03
1.16700367e+03
1.60006606e+03
8.49167298e+02
0.00000000e+00
0.00000000e+00
1.21870047e+03
1.06091495e+03
1.11365644e+03
6.07910163e+02
1.36809929e+03
8.11428259e+02
4.45037001e+02
1.33887743e+03
6.07109611e+02
9.66497632e+02
6.36268606e+02
1.86786678e+03
1.50922885e+03
1.02229131e+03
9.17246660e+02
1.11782109e+03
1.24630996e+03
1.04983921e+03
8.51214347e+02
8.32641548e+02
0.00000000e+00
1.15841392e+03
1.02374383e+03
8.51477769e+02
1.45413700e+03
9.76664917e+02
5.82549807e+02
0.00000000e+00
0.00000000e+00
0.00000000e+00
0.00000000e+00
0.00000000e+00
4.61193209e+02
0.00000000e+00
9.61218203e+02
1.08861738e+03
1.08023149e+03
8.62161053e+02
7.62564687e+02
1.30324698e+03
0.00000000e+00
9.17845699e+02
1.67772844e+03
9.12188821e+02
1.36740849e+03
8.39511573e+02
9.64158757e+02
6.81242789e+02
5.72150108e+02
9.86809249e+02
6.61880058e+02
1.36112726e+03
9.51023359e+02
1.61099466e+03
7.33998289e+02
8.28853893e+02
8.87684989e+02
8.60120565e+02
1.08966292e+03
1.04283837e+03
1.61957589e+03
9.03662276e+02
0.00000000e+00
1.25396594e+03
9.73110527e+02
0.00000000e+00
0.00000000e+00
0.00000000e+00
0.00000000e+00
0.00000000e+00
0.00000000e+00
0.00000000e+00
0.00000000e+00
0.00000000e+00
0.00000000e+00
0.00000000e+00
0.00000000e+00
9.48741448e+02
8.32873044e+02
0.00000000e+00
0.00000000e+00
8.87164980e+02
9.07429741e+02
7.29498168e+02
0.00000000e+00
1.06332047e+03
0.00000000e+00
7.47078770e+02
0.00000000e+00
0.00000000e+00
7.94754756e+02
0.00000000e+00
9.69494988e+02
1.16930796e+03
1.20840864e+03
1.08380461e+03
8.35892040e+02
5.49714169e+02
0.00000000e+00
9.44945937e+02
7.30405866e+02
0.00000000e+00
6.99092395e+02
7.46255141e+02
0.00000000e+00
8.29932750e+02
1.08462724e+03
9.05640477e+02
1.60443804e+03
9.05501336e+02
1.06420648e+03
1.10192972e+03
1.68972035e+03
0.00000000e+00
1.01900128e+03
1.12013976e+03
1.16286345e+03
1.03440147e+03
7.27735272e+02
1.01958536e+03
1.81225766e+03
1.21698014e+03
1.09761287e+03
8.55626193e+02
7.86513316e+02
0.00000000e+00
1.14825438e+03
1.84773956e+03
1.89401611e+03
2.60544047e+03
1.17070006e+03
2.14265913e+03
1.37065222e+03
2.18354341e+03
9.37024355e+02
2.13142965e+03
2.24269477e+03
2.31257854e+03
1.34426662e+03
1.36173440e+03
1.74633668e+03
2.22098359e+03
1.13331103e+03
1.56424968e+03
1.03227308e+03
0.00000000e+00
6.26575940e+02
9.28703901e+02
9.70236606e+02
7.61590949e+02
1.37068337e+03
7.04366304e+02
1.52837183e+03
8.90280466e+02
2.23302681e+03
1.28194148e+03
1.20379845e+03
1.46142668e+03
1.28543102e+03
2.31335392e+03
1.61307683e+03
1.32644359e+03
2.19049970e+03
1.32578871e+03
1.87136836e+03
2.16693084e+03
0.00000000e+00
0.00000000e+00
1.04338827e+03
2.20880678e+03
1.21868636e+03
2.19953408e+03
2.32235935e+03
8.95438064e+02
1.42007896e+03
6.97146760e+02
1.85393800e+03
9.49815041e+02
2.03374602e+03
1.42949974e+03
1.07609909e+03
2.39211517e+03
7.67700318e+02
1.30336022e+03
2.20831661e+03
1.67363872e+03
1.97487219e+03
6.44143173e+02
0.00000000e+00
1.39691982e+03
2.70062611e+03
1.52188864e+03
2.08950267e+03
1.88471851e+03
1.26284850e+03
1.17763495e+03
1.97854578e+03
1.44968905e+03
1.23722100e+03
1.79889708e+03
2.25134470e+03
1.32823904e+03
1.38682352e+03
2.20203238e+03
1.70774825e+03
2.32431231e+03
2.14300123e+03
1.54816860e+03
0.00000000e+00
0.00000000e+00
1.50018022e+03
2.74685912e+03
1.21823264e+03
2.17605262e+03
8.87508704e+02
1.20581440e+03
1.47848816e+03
2.07297853e+03
1.76428803e+03
1.47539705e+03
7.78409555e+02
2.14848954e+03
6.20261186e+02
1.41911032e+03
2.40064030e+03
1.77476670e+03
1.50738154e+03
2.20875149e+03
1.18789258e+03
0.00000000e+00
0.00000000e+00
0.00000000e+00
2.25348418e+03
1.94711488e+03
1.90632190e+03
1.54911769e+03
1.11142990e+03
2.43419971e+03
7.65213796e+02
1.26034717e+03
1.80585087e+03
1.25067686e+03
1.27702949e+03
1.91830778e+03
1.77451231e+03
9.54061485e+02
1.60066507e+03
2.10898715e+03
1.61385859e+03
0.00000000e+00
0.00000000e+00
0.00000000e+00
0.00000000e+00
2.18888489e+03
1.20975487e+03
1.83028808e+03
8.31044335e+02
2.43463191e+03
1.03291597e+03
1.96312486e+03
1.57292786e+03
1.60670412e+03
1.66391662e+03
2.42633468e+03
2.42551185e+03
2.24343938e+03
9.78176646e+02
2.29341340e+03
1.32580932e+03
2.32249886e+03
5.44735352e+02
0.00000000e+00
6.26191577e+02
4.76897083e+02
2.14640778e+03
9.48556468e+02
2.33149665e+03
2.45640526e+03
1.87548129e+03
2.34169273e+03
6.40052825e+02
1.39803412e+03
1.12566244e+03
2.46409987e+03
1.60893340e+03
2.09637747e+03
1.18798605e+03
2.32055433e+03
1.19840760e+03
1.11537705e+03
2.21731910e+03
0.00000000e+00
0.00000000e+00
0.00000000e+00
0.00000000e+00
1.47396278e+03
1.10091132e+03
1.97543018e+03
1.64183714e+03
1.11895398e+03
1.08158753e+03
2.57666521e+03
2.56335898e+03
1.19693193e+03
2.34066068e+03
1.01738655e+03
1.99687917e+03
1.54829296e+03
1.49566574e+03
1.84769859e+03
1.11058189e+03
2.18101294e+03
0.00000000e+00
0.00000000e+00
0.00000000e+00
0.00000000e+00
2.60839722e+03
1.29053668e+03
1.51719445e+03
2.11566260e+03
1.16709322e+03
6.69773111e+02
2.32929224e+03
2.49811304e+03
1.62798336e+03
1.25329356e+03
7.50686515e+02
2.54542772e+03
9.61319672e+02
1.25315285e+03
1.03183659e+03
1.21039132e+03
1.73032908e+03
0.00000000e+00
0.00000000e+00
5.56588626e+02
0.00000000e+00
2.71280557e+03
1.15828870e+03
2.73021626e+03
2.68560271e+03
2.52724249e+03
1.95505178e+03
2.64707985e+03
1.81321211e+03
1.71381852e+03
2.07110206e+03
1.08667745e+03
1.64269570e+03
2.36154696e+03
2.00696001e+03
2.20779849e+03
1.17369156e+03
2.06881511e+03
0.00000000e+00
6.83980541e+02
0.00000000e+00
0.00000000e+00
2.37968726e+03
8.84337321e+02
2.51194319e+03
1.27881449e+03
1.27604662e+03
2.47366329e+03
1.22870968e+03
1.39313763e+03
7.00134469e+02
2.17907068e+03
2.45814644e+03
1.62670786e+03
8.86805513e+02
1.08054034e+03
1.92913112e+03
1.28587506e+03
1.22072057e+03
0.00000000e+00
0.00000000e+00
0.00000000e+00
1.64294461e+03
1.52121620e+03
1.49860664e+03
2.02506307e+03
1.75905722e+03
1.46943453e+03
3.55741584e+02
1.78821786e+03
1.32740700e+03
1.34199963e+03
1.46662863e+03
2.60374046e+03
7.48986642e+02
1.73040900e+03
2.17887559e+03
1.10181360e+03
1.33714798e+03
1.66981467e+03
1.08937956e+03
0.00000000e+00
0.00000000e+00
1.21835967e+03
2.04461357e+03
1.80954476e+03
2.75556991e+03
2.35831087e+03
2.02585386e+03
1.07185327e+03
2.45140779e+03
1.72352709e+03
1.01270129e+03
2.65204179e+03
2.29501133e+03
1.18940989e+03
1.42908013e+03
2.37842608e+03
2.45253041e+03
1.53010202e+03
1.14664667e+03
9.70254887e+02
0.00000000e+00
0.00000000e+00
1.74320089e+03
2.57367220e+03
2.25758163e+03
2.51639730e+03
2.81022304e+03
2.51268192e+03
8.28354166e+02
1.71330326e+03
2.07948050e+03
2.80920499e+03
1.25836087e+03
2.59564602e+03
8.99087090e+02
2.49429549e+03
2.38766301e+03
2.40920892e+03
1.71532880e+03
2.48211538e+03
1.18892196e+03
0.00000000e+00
0.00000000e+00
1.20440408e+03
1.20150314e+03
1.01827241e+03
2.71529522e+03
1.92122150e+03
1.87542199e+03
1.66572717e+03
4.02286680e+02
6.41186859e+02
5.86176237e+02
7.29130194e+02
8.35775566e+02
1.01641393e+03
1.28383406e+03
1.79354293e+03
1.92680557e+03
1.61503539e+03
1.36682653e+03
1.14387720e+03
0.00000000e+00
9.00792715e+02
1.10082145e+03
1.80700146e+03
1.96829186e+03
1.36260640e+03
2.62703728e+03
9.91176415e+02
1.72538609e+03
2.82785814e+03
2.45049742e+03
2.70242623e+03
2.19349046e+03
2.63553867e+03
1.14206138e+03
1.27606034e+03
1.53701266e+03
1.93935625e+03
2.18452159e+03
2.55594067e+03
1.19570078e+03
0.00000000e+00
7.09200747e+02
1.03708693e+03
9.88064707e+02
1.32491126e+03
1.68798247e+03
1.40352024e+03
1.13444275e+03
0.00000000e+00
4.86803051e+02
5.68763886e+02
6.11328291e+02
0.00000000e+00
0.00000000e+00
0.00000000e+00
1.07983642e+03
8.99400864e+02
1.34991257e+03
8.00125318e+02
1.81863443e+03
9.21302989e+02
0.00000000e+00
7.21576346e+02
1.07913179e+03
1.04775829e+03
9.50007176e+02
8.18519865e+02
0.00000000e+00
0.00000000e+00
0.00000000e+00
0.00000000e+00
0.00000000e+00
0.00000000e+00
7.48001924e+02
0.00000000e+00
0.00000000e+00
0.00000000e+00
8.51003143e+02
6.45173373e+02
0.00000000e+00
0.00000000e+00
0.00000000e+00
8.83821218e+02
0.00000000e+00
6.93110492e+02
9.66386417e+02
1.95845020e+03
1.05193470e+03
1.20183256e+03