# vtk DataFile Version 3.0
MPS 3D Simulation Step 7300
ASCII
DATASET UNSTRUCTURED_GRID
POINTS 20213 double
-1.14630629e-03 3.33881128e-04 -8.35530819e-04
-1.06245154e-03 1.83802640e-04 -8.50975071e-04
-9.33552318e-04 2.94420662e-04 -1.04060077e-03
-8.81915049e-04 3.34895065e-04 -1.09823849e-03
-8.32037109e-04 1.82803507e-04 -1.05975943e-03
-8.35103976e-04 3.99049474e-04 -1.15709220e-03
-6.56910964e-04 2.23451808e-04 -1.21392094e-03
-5.19679466e-04 2.26083052e-04 -1.27188905e-03
-4.47489762e-04 1.91130103e-04 -1.16621144e-03
-3.96546362e-04 7.96584169e-04 -1.14504436e-03
-2.06850287e-04 8.99264365e-04 -1.24145550e-03
-2.85092148e-04 8.33612539e-04 -1.26457253e-03
-1.07000529e-04 6.70147435e-04 -1.18771594e-03
-9.35168849e-05 1.81177433e-04 -1.33570818e-03
1.66983605e-05 1.97348188e-04 -1.34677894e-03
5.29591046e-04 1.26879092e-04 -1.21216890e-03
2.36625672e-04 6.88861115e-04 -8.54359951e-04
5.09810474e-04 1.95979973e-04 -1.26241886e-03
6.19739609e-04 6.69993076e-04 -1.05993351e-03
8.03153827e-04 7.67391374e-04 -9.10508992e-04
1.08408604e-03 5.13964964e-04 -7.84487081e-04
-1.09331981e-03 2.61614327e-04 -8.62702535e-04
-1.02704110e-03 2.17283873e-04 -9.18109451e-04
-9.95618775e-04 3.35834295e-04 -1.00153034e-03
-8.97061785e-04 4.27526431e-04 -1.10997329e-03
-8.52578197e-04 5.67727981e-04 -1.16724841e-03
-9.56221424e-04 4.72772854e-04 -1.06191838e-03
-7.80035592e-04 4.42671987e-04 -1.21004932e-03
-5.54711423e-04 3.83303398e-04 -1.31458834e-03
-3.80980322e-04 2.06952016e-04 -1.29590621e-03
-3.97933306e-04 1.20441474e-04 -1.22727263e-03
-1.30671017e-04 2.45645324e-04 -1.36450662e-03
1.07934728e-04 1.74185077e-04 -1.32523178e-03
1.71956547e-04 3.53391216e-04 -1.39403699e-03
2.26818789e-04 2.86567930e-04 -1.36594367e-03
2.66092649e-04 2.19215369e-04 -1.33417322e-03
4.46579444e-04 1.30962062e-04 -1.24924124e-03
4.21996058e-04 2.60887287e-04 -1.31848939e-03
4.84049901e-04 6.35791792e-04 -1.23178884e-03
4.26801934e-04 1.90761398e-04 -1.28911933e-03
5.87295331e-04 1.90672973e-04 -1.22837582e-03
8.39840563e-04 1.31500165e-04 -1.02091756e-03
-1.09625161e-03 3.35919001e-04 -8.99470039e-04
-1.05028243e-03 3.82024629e-04 -9.58642541e-04
-1.05280433e-03 5.90313221e-04 -9.75655704e-04
-8.15053944e-04 3.19342616e-04 -1.14737750e-03
-9.45014421e-04 3.80297964e-04 -1.05839747e-03
-8.46567754e-04 4.83619251e-04 -1.16602493e-03
-5.97960268e-04 2.61827612e-04 -1.25854711e-03
-6.78257762e-04 3.06165802e-04 -1.23467817e-03
-4.49061834e-04 3.43190970e-04 -1.33497962e-03
-3.12552506e-04 2.39814075e-04 -1.32938883e-03
-1.32081190e-04 3.89521520e-04 -1.40522526e-03
-4.47293642e-05 2.46673026e-04 -1.36932876e-03
1.29441604e-04 4.25343309e-04 -1.41340983e-03
3.02384012e-04 3.17204244e-04 -1.36655754e-03
2.59142456e-04 1.40698686e-04 -1.29065794e-03
4.12559961e-04 4.15400613e-04 -1.36030256e-03
4.65104755e-04 3.42110608e-04 -1.32812163e-03
3.83197514e-04 3.31870933e-04 -1.35200538e-03
6.57516751e-04 2.65134884e-04 -1.22666658e-03
7.31075493e-04 1.87245223e-04 -1.14805317e-03
7.88209062e-04 1.52880988e-04 -1.08786774e-03
-1.16763709e-03 4.15102048e-04 -8.27422987e-04
-1.07037847e-03 4.67907613e-04 -9.49864727e-04
-1.02510801e-03 5.17297145e-04 -1.00014386e-03
-9.06138993e-04 5.19288319e-04 -1.11486753e-03
-7.89113177e-04 5.25209427e-04 -1.21524404e-03
-7.00356974e-04 3.85275925e-04 -1.24627117e-03
-6.14461728e-04 3.39055580e-04 -1.27870851e-03
-3.78249051e-04 2.92174386e-04 -1.33543001e-03
-2.90718704e-04 3.15168850e-04 -1.36371772e-03
-3.23812740e-04 1.50389734e-04 -1.27240896e-03
-6.58516054e-05 4.42780873e-04 -1.41959365e-03
-1.19752841e-04 1.18715456e-04 -1.27648210e-03
-2.67968044e-05 3.77780918e-04 -1.40876600e-03
1.01809254e-05 3.06501870e-04 -1.38798780e-03
2.49549730e-04 3.76917352e-04 -1.39268625e-03
3.41946905e-04 2.51160180e-04 -1.33667531e-03
4.53976159e-04 4.99481245e-04 -1.35523484e-03
7.04317059e-04 3.40709763e-04 -1.22343341e-03
7.30736109e-04 2.59495186e-04 -1.18449060e-03
7.97334651e-04 2.30197121e-04 -1.12788203e-03
8.94338678e-04 2.60887380e-04 -1.06304591e-03
-1.18596665e-03 5.01055097e-04 -8.14048739e-04
-9.99986061e-04 6.33460412e-04 -1.02565306e-03
-1.00577129e-03 4.29423553e-04 -1.00982163e-03
-7.93750485e-04 6.09477364e-04 -1.21329274e-03
-6.51828459e-04 5.10953781e-04 -1.29490468e-03
-7.17717664e-04 4.72550875e-04 -1.25467111e-03
-3.56783702e-04 3.67689457e-04 -1.36706846e-03
-2.91595540e-04 4.17561197e-04 -1.39268332e-03
-2.29568863e-04 3.63227848e-04 -1.39018743e-03
-1.32662748e-04 4.87520992e-04 -1.42018616e-03
-3.93375258e-05 5.20288585e-04 -1.42399849e-03
-1.71194539e-04 3.13057317e-04 -1.38472138e-03
2.45316978e-05 4.65431734e-04 -1.42037402e-03
2.60139804e-04 5.44378821e-04 -1.41150225e-03
5.71696604e-05 3.92068099e-04 -1.41172882e-03
3.30784195e-04 4.01243616e-04 -1.38194453e-03
3.70149782e-04 4.85194828e-04 -1.38115266e-03
5.79574419e-04 2.65392972e-04 -1.26161226e-03
7.79396154e-04 3.17699287e-04 -1.17374998e-03
8.42541972e-04 2.95941962e-04 -1.12047318e-03
8.36234708e-04 3.78609488e-04 -1.14848530e-03
-1.17682104e-03 6.43575715e-04 -8.24147028e-04
-1.09997420e-03 5.44485675e-04 -9.25928196e-04
-9.47480435e-04 6.75586364e-04 -1.07264765e-03
-9.74000946e-04 5.55927369e-04 -1.05245830e-03
-7.23525216e-04 5.54416415e-04 -1.25862044e-03
-5.79745759e-04 4.63920038e-04 -1.32081094e-03
-4.89398823e-04 4.15380366e-04 -1.34454985e-03
-4.13873303e-04 4.25069670e-04 -1.36884555e-03
-2.04236609e-04 4.44036621e-04 -1.40900880e-03
-2.71766569e-04 5.01941016e-04 -1.40884004e-03
-1.99980938e-04 5.38543334e-04 -1.41981370e-03
-8.58478086e-05 3.19689662e-04 -1.39102783e-03
2.05833934e-04 4.48142849e-04 -1.41099331e-03
2.84721241e-04 4.67895442e-04 -1.40098537e-03
6.86805898e-05 2.42964681e-04 -1.36491279e-03
2.73103796e-04 7.10252191e-04 -1.39570681e-03
3.35745396e-04 5.57011463e-04 -1.39603841e-03
4.92064537e-04 4.23266220e-04 -1.33471080e-03
6.28790831e-04 3.36360021e-04 -1.26339087e-03
7.70005245e-04 3.97299321e-04 -1.19608804e-03
9.67241009e-04 4.02966199e-04 -1.04498851e-03
-1.15426700e-03 5.72567724e-04 -8.59132871e-04
-1.13717835e-03 4.86729938e-04 -8.80564415e-04
-9.99370657e-04 7.18962481e-04 -1.01205956e-03
-8.76455393e-04 6.42485188e-04 -1.14590737e-03
-7.28313191e-04 6.35001009e-04 -1.25488280e-03
-5.81950717e-04 5.48854587e-04 -1.33120438e-03
-5.07934787e-04 4.94480429e-04 -1.35310286e-03
-3.51840549e-04 4.73725564e-04 -1.39244907e-03
-4.31327561e-04 5.11490252e-04 -1.37866186e-03
-3.54230264e-04 5.55054088e-04 -1.40182205e-03
-1.14899200e-04 5.70393578e-04 -1.42272637e-03
4.31090198e-05 5.55506707e-04 -1.42534519e-03
1.05716322e-04 5.02705774e-04 -1.42311522e-03
1.83899349e-04 5.27980966e-04 -1.42152589e-03
2.10144656e-04 6.15412803e-04 -1.41550636e-03
5.35924577e-04 5.04535000e-04 -1.32482309e-03
4.99556545e-04 5.80461380e-04 -1.34104946e-03
5.46940444e-04 3.43379021e-04 -1.29629581e-03
5.67056413e-04 4.24467671e-04 -1.30485189e-03
9.11157178e-04 4.45026143e-04 -1.09887358e-03
8.83509267e-04 5.27902296e-04 -1.12736679e-03
-1.17938870e-03 7.28777047e-04 -7.91621844e-04
-1.10860156e-03 6.26807300e-04 -9.11776547e-04
-1.05639389e-03 6.73097104e-04 -9.63624078e-04
-9.25339417e-04 6.01476553e-04 -1.10090916e-03
-6.55930417e-04 5.96162962e-04 -1.29750217e-03
-5.05748571e-04 5.76647135e-04 -1.35991467e-03
-5.07861952e-04 6.58050773e-04 -1.35698732e-03
-4.31327709e-04 5.96620054e-04 -1.38508419e-03
-3.55908822e-04 6.37673546e-04 -1.40172942e-03
-2.76881763e-04 5.90514091e-04 -1.41448598e-03
-1.94209978e-04 6.19421417e-04 -1.41972508e-03
-3.46240800e-05 6.06067265e-04 -1.42155587e-03
4.37395843e-05 6.40915737e-04 -1.41874994e-03
1.24499442e-04 5.90335283e-04 -1.42211662e-03
1.94529712e-04 6.96355749e-04 -1.40806026e-03
4.15134487e-04 5.69206358e-04 -1.37369621e-03
3.76145514e-04 6.40101097e-04 -1.38112984e-03
5.83524167e-04 5.75072234e-04 -1.30301912e-03
6.37413763e-04 4.16071649e-04 -1.27198925e-03
8.39892307e-04 4.60675416e-04 -1.15259695e-03
8.48655775e-04 6.25779414e-04 -1.15233653e-03
-1.13727623e-03 6.91656657e-04 -8.69066610e-04
-1.08728709e-03 7.29389052e-04 -9.17624910e-04
-1.03419626e-03 7.74036040e-04 -9.59523566e-04
-7.54195417e-04 7.06664177e-04 -1.22507555e-03
-6.64124480e-04 6.77134054e-04 -1.28465729e-03
-5.83698788e-04 6.29469950e-04 -1.32865987e-03
-5.19731741e-04 7.36492593e-04 -1.33801801e-03
-4.30133642e-04 6.79093210e-04 -1.38097576e-03
-3.60571579e-04 7.24483738e-04 -1.38920380e-03
-2.80142927e-04 6.70149454e-04 -1.40987914e-03
-2.04460307e-04 6.98049275e-04 -1.41223104e-03
-1.11857958e-04 6.53530268e-04 -1.41594927e-03
-3.27363299e-05 6.91946939e-04 -1.41006659e-03
4.76440399e-05 7.28323877e-04 -1.40424404e-03
1.19177954e-04 6.74157168e-04 -1.41458487e-03
3.49396494e-04 7.17366815e-04 -1.37838099e-03
3.80462171e-04 8.00120921e-04 -1.34857617e-03
4.56883467e-04 6.50817909e-04 -1.35294663e-03
6.16773032e-04 4.98332781e-04 -1.28651675e-03
7.05900999e-04 4.25518552e-04 -1.23712513e-03
8.15605445e-04 5.51967679e-04 -1.17246616e-03
-1.13148457e-03 7.74072063e-04 -8.42691415e-04
-1.01866777e-03 8.56183843e-04 -9.35340363e-04
-9.41170227e-04 7.58978047e-04 -1.06057077e-03
-8.20644021e-04 6.83368304e-04 -1.18418697e-03
-7.50670599e-04 7.88705022e-04 -1.20167614e-03
-5.91718166e-04 7.06560381e-04 -1.31441944e-03
-6.15355489e-04 7.76732999e-04 -1.28339258e-03
-4.48374394e-04 7.57064705e-04 -1.35983921e-03
-3.81044119e-04 8.02841620e-04 -1.36593931e-03
-2.87626911e-04 7.54116082e-04 -1.39509731e-03
-2.13041155e-04 7.81199961e-04 -1.39461773e-03
-1.30433975e-04 7.33667287e-04 -1.40422335e-03
-5.45592912e-05 7.69704375e-04 -1.39724704e-03
2.07235242e-05 8.06572935e-04 -1.39014200e-03
1.29915455e-04 7.59561894e-04 -1.39914406e-03
3.00668688e-04 7.93666022e-04 -1.37105590e-03
4.63701921e-04 8.01722232e-04 -1.31969892e-03
4.24609493e-04 7.28700485e-04 -1.35299147e-03
6.62969697e-04 5.80535632e-04 -1.26470499e-03
7.70953506e-04 4.81455633e-04 -1.20060272e-03
8.10140475e-04 7.18669896e-04 -1.17052268e-03
-1.07782703e-03 8.14179813e-04 -8.90726682e-04
-1.00507339e-03 9.32919375e-04 -9.02631019e-04
[...]
POINT_DATA 20213
SCALARS pressure double 1
LOOKUP_TABLE default
0.00000000e+00
0.00000000e+00
7.49796701e+02
0.00000000e+00
0.00000000e+00
1.01089030e+03
0.00000000e+00
0.00000000e+00
8.67266838e+02
1.03842811e+03
9.69518269e+02
7.89915565e+02
1.20716042e+03
0.00000000e+00
8.29466227e+02
3.66382974e+02
1.87180139e+03
0.00000000e+00
9.97537320e+02
9.43691674e+02
8.69985220e+02
8.94010152e+02
7.35501830e+02
8.39427412e+02
0.00000000e+00
1.09437129e+03
1.03254295e+03
0.00000000e+00
0.00000000e+00
8.93943292e+02
0.00000000e+00
1.16909834e+03
6.91971442e+02
0.00000000e+00
0.00000000e+00
0.00000000e+00
0.00000000e+00
0.00000000e+00
7.50580911e+02
0.00000000e+00
0.00000000e+00
0.00000000e+00
0.00000000e+00
8.76607247e+02
0.00000000e+00
9.86824720e+02
0.00000000e+00
0.00000000e+00
7.14616160e+02
0.00000000e+00
1.08669374e+03
1.10828247e+03
1.25438620e+03
0.00000000e+00
6.52387417e+02
0.00000000e+00
0.00000000e+00
0.00000000e+00
0.00000000e+00
0.00000000e+00
0.00000000e+00
5.40269672e+02
0.00000000e+00
9.87383588e+02
9.18898224e+02
9.96757334e+02
1.14172127e+03
1.00417269e+03
8.77242960e+02
0.00000000e+00
0.00000000e+00
1.37236986e+03
8.21156029e+02
1.06910398e+03
7.54878248e+02
1.11509917e+03
0.00000000e+00
0.00000000e+00
0.00000000e+00
0.00000000e+00
7.96675781e+02
6.32182018e+02
0.00000000e+00
0.00000000e+00
9.27539803e+02
1.04862607e+03
0.00000000e+00
1.00027046e+03
8.92699690e+02
9.86825720e+02
1.29737998e+03
1.45678567e+03
1.42034249e+03
0.00000000e+00
7.04245767e+02
1.39793773e+03
8.36155626e+02
0.00000000e+00
0.00000000e+00
0.00000000e+00
0.00000000e+00
0.00000000e+00
7.92551749e+02
0.00000000e+00
7.37230671e+02
1.17268739e+03
0.00000000e+00
9.66570203e+02
1.12990304e+03
1.04226333e+03
9.73975765e+02
1.27394074e+03
1.37267843e+03
1.18403563e+03
1.28283000e+03
0.00000000e+00
1.28886002e+03
0.00000000e+00
0.00000000e+00
0.00000000e+00
9.48917059e+02
0.00000000e+00
0.00000000e+00
0.00000000e+00
0.00000000e+00
7.62762759e+02
1.07725307e+03
0.00000000e+00
0.00000000e+00
1.01886113e+03
0.00000000e+00
0.00000000e+00
1.13296764e+03
1.47927653e+03
1.40285615e+03
1.37311700e+03
0.00000000e+00
0.00000000e+00
0.00000000e+00
0.00000000e+00
0.00000000e+00
0.00000000e+00
0.00000000e+00
0.00000000e+00
0.00000000e+00
8.96322710e+02
1.00761790e+03
1.32896462e+03
1.09471869e+03
1.06739771e+03
1.09103742e+03
0.00000000e+00
1.08266793e+03
0.00000000e+00
1.19304537e+03
1.11279710e+03
1.18862940e+03
0.00000000e+00
0.00000000e+00
0.00000000e+00
0.00000000e+00
0.00000000e+00
0.00000000e+00
8.37167333e+02
0.00000000e+00
0.00000000e+00
9.55890501e+02
8.29541290e+02
1.25508128e+03
1.09870567e+03
9.07717944e+02
0.00000000e+00
0.00000000e+00
0.00000000e+00
0.00000000e+00
8.86048131e+02
0.00000000e+00
7.77587868e+02
0.00000000e+00
0.00000000e+00
0.00000000e+00
1.05850830e+03
8.22359174e+02
9.74679537e+02
8.81088648e+02
6.72442921e+02
0.00000000e+00
8.22926177e+02
9.52533493e+02
0.00000000e+00
0.00000000e+00
0.00000000e+00
8.72856091e+02
0.00000000e+00
6.29811115e+02
0.00000000e+00
0.00000000e+00
0.00000000e+00
0.00000000e+00
0.00000000e+00
0.00000000e+00
0.00000000e+00
1.05357930e+03
1.10970100e+03
1.04190922e+03
0.00000000e+00
8.58027191e+02
6.88504146e+02
8.86246907e+02
0.00000000e+00
1.03869861e+03
0.00000000e+00
0.00000000e+00
0.00000000e+00
0.00000000e+00
5.57317849e+02
0.00000000e+00
0.00000000e+00
0.00000000e+00
0.00000000e+00
9.99018883e+02
0.00000000e+00
7.16540028e+02
1.23048379e+03
1.14258457e+03
1.16120641e+03
1.16452664e+03
6.69133255e+02
0.00000000e+00
7.04276734e+02
0.00000000e+00
1.26215564e+03
1.11244462e+03
9.34539000e+02
0.00000000e+00
0.00000000e+00
0.00000000e+00
0.00000000e+00
0.00000000e+00
6.69144942e+02
7.97518279e+02
0.00000000e+00
1.06921252e+03
1.09477134e+03
0.00000000e+00
1.14569011e+03
0.00000000e+00
0.00000000e+00
0.00000000e+00
7.06997336e+02
0.00000000e+00
6.54568848e+02
0.00000000e+00
0.00000000e+00
8.04425557e+02
0.00000000e+00
0.00000000e+00
6.44079308e+02
0.00000000e+00
7.40022963e+02
9.23492384e+02
8.10893030e+02
9.30559970e+02
1.06117437e+03
0.00000000e+00
0.00000000e+00
1.16775819e+03
0.00000000e+00
0.00000000e+00
0.00000000e+00
7.52065584e+02
7.40742311e+02
0.00000000e+00
0.00000000e+00
0.00000000e+00
0.00000000e+00
9.33709794e+02
0.00000000e+00
0.00000000e+00
0.00000000e+00
1.04871686e+03
0.00000000e+00
0.00000000e+00
0.00000000e+00
9.08013981e+02
1.11924653e+03
1.22867702e+03
1.25663230e+03
1.02198966e+03
9.79361581e+02
6.88918137e+02
0.00000000e+00
0.00000000e+00
7.01609065e+02
0.00000000e+00
8.06834686e+02
8.37363063e+02
8.86878378e+02
7.35636115e+02
6.48747622e+02
9.20243122e+02
1.13526854e+03
0.00000000e+00
9.88651481e+02
0.00000000e+00
9.67355917e+02
1.08643028e+03
0.00000000e+00
1.44817624e+03
1.19051201e+03
7.92017604e+02
8.51509805e+02
0.00000000e+00
0.00000000e+00
7.23600116e+02
0.00000000e+00
0.00000000e+00
0.00000000e+00
0.00000000e+00
0.00000000e+00
0.00000000e+00
0.00000000e+00
1.14139199e+03
1.14308124e+03
1.00541795e+03
9.75991353e+02
9.11350872e+02
1.22904002e+03
1.28216636e+03
1.29453437e+03
1.29290494e+03
0.00000000e+00
0.00000000e+00
0.00000000e+00
0.00000000e+00
0.00000000e+00
0.00000000e+00
1.00592885e+03
0.00000000e+00
0.00000000e+00
0.00000000e+00
0.00000000e+00
1.06816088e+03
1.12135695e+03
1.04729908e+03
8.07261285e+02
0.00000000e+00
0.00000000e+00
1.11319792e+03
1.29793304e+03
0.00000000e+00
1.09828391e+03
9.20490108e+02
7.60259145e+02
0.00000000e+00
0.00000000e+00
0.00000000e+00
0.00000000e+00
9.36509841e+02
1.17165261e+03
0.00000000e+00
0.00000000e+00
1.35600199e+03
1.05238603e+03
1.14460730e+03
0.00000000e+00
1.00894942e+03
0.00000000e+00
9.71227027e+02
1.13158200e+03
1.05710895e+03
9.27534935e+02
0.00000000e+00
0.00000000e+00
0.00000000e+00
6.63965242e+02
0.00000000e+00
0.00000000e+00
1.23859622e+03
1.22043272e+03
1.24783098e+03
1.08470681e+03
0.00000000e+00
1.27399779e+03
1.05362326e+03
1.41482529e+03
1.26887116e+03
0.00000000e+00
0.00000000e+00
0.00000000e+00
9.35195302e+02
8.99192920e+02
9.35425275e+02
6.62016408e+02
5.54706491e+02
5.61068583e+02
6.46894270e+02
0.00000000e+00
0.00000000e+00
1.29048861e+03
1.26317982e+03
1.12040336e+03
0.00000000e+00
1.08406175e+03
0.00000000e+00
1.33468741e+03
1.28205571e+03
1.06397390e+03
0.00000000e+00
0.00000000e+00
0.00000000e+00
0.00000000e+00
6.76642047e+02
0.00000000e+00
0.00000000e+00
0.00000000e+00
0.00000000e+00
5.08343626e+02
0.00000000e+00
0.00000000e+00
1.11073939e+03
1.23876942e+03
0.00000000e+00
0.00000000e+00
0.00000000e+00
0.00000000e+00
1.15604313e+03
0.00000000e+00
9.64460109e+02
9.92685490e+02
1.00835551e+03
0.00000000e+00
5.33686107e+02
0.00000000e+00
0.00000000e+00
0.00000000e+00
0.00000000e+00
0.00000000e+00
0.00000000e+00
0.00000000e+00
7.10828585e+02
8.58928343e+02
9.44366483e+02
1.12577118e+03
8.85062730e+02
0.00000000e+00
0.00000000e+00
1.40390724e+03
9.49640546e+02
9.09669813e+02
1.28228873e+03
1.58827628e+03
1.59899978e+03
1.17488772e+03
1.06017724e+03
1.31001106e+03
1.52214510e+03
0.00000000e+00
1.03742179e+03
1.05554644e+03
3.61608462e+02
0.00000000e+00
1.02047971e+03
1.06851913e+03
1.33266829e+03
1.81103696e+03
1.02976437e+03
1.39708272e+03
1.20069272e+03
1.32039161e+03
1.10751890e+03
1.71032798e+03
2.26204081e+03
2.11961572e+03
9.22244765e+02
2.21494620e+03
1.88276413e+03
1.29714122e+03
1.25085495e+03
1.16550844e+03
1.29798138e+03
1.10694678e+03
0.00000000e+00
9.11824466e+02
1.39278045e+03
1.35742571e+03
1.62537458e+03
8.34021060e+02
8.92223243e+02
1.72804205e+03
0.00000000e+00
8.11009047e+02
1.32245022e+03
1.27363541e+03
1.08885920e+03
0.00000000e+00
8.44587932e+02
2.05636012e+03
1.02840644e+03
1.12743628e+03
9.24511109e+02
1.06687148e+03
1.07141962e+03
0.00000000e+00
0.00000000e+00
1.26744481e+03
2.05535615e+03
9.24352655e+02
1.13452713e+03
2.25285891e+03
9.74064686e+02
1.37745837e+03
7.50066313e+02
8.08467750e+02
1.39400604e+03
1.30385884e+03
1.71166020e+03
1.29557253e+03
1.22379729e+03
1.28734947e+03
1.53828564e+03
1.26388974e+03
1.05209520e+03
1.70953553e+03
0.00000000e+00
9.69237186e+02
1.38049029e+03
1.73383279e+03
1.64751847e+03
2.11260508e+03
1.75648907e+03
1.66822427e+03
1.05968901e+03
1.10115409e+03
1.70416152e+03
1.82644250e+03
2.11834334e+03
1.39736646e+03
1.46602243e+03
7.31867128e+02
2.01959182e+03
5.99896392e+02
1.10874337e+03
1.27239301e+03
9.89730804e+02
7.52562879e+02
1.07015272e+03
2.25024132e+03
1.16316638e+03
1.23919868e+03
2.12542353e+03
0.00000000e+00
2.01796388e+03
1.31350290e+03
1.17161834e+03
1.08994622e+03
2.03793063e+03
1.16832991e+03
1.53102688e+03
1.63306117e+03
1.28955477e+03
7.77498937e+02
9.01808319e+02
1.01127744e+03
7.92402837e+02
1.18760461e+03
9.99032654e+02
0.00000000e+00
1.44396627e+03
1.30160080e+03
1.46466922e+03
1.47006325e+03
1.03763256e+03
1.68020380e+03
1.29243195e+03
1.21388896e+03
2.33542621e+03
9.71249324e+02
1.48907645e+03
2.29851703e+03
1.33058937e+03
1.27136335e+03
1.52105831e+03
1.29433407e+03
8.19550505e+02
9.21685319e+02
9.15734273e+02
1.01605882e+03
0.00000000e+00
1.35260780e+03
0.00000000e+00
1.28344806e+03
1.29817285e+03
1.51496246e+03
1.28491774e+03
1.81821313e+03
1.21419952e+03
1.53149907e+03
1.30012627e+03
1.16194952e+03
2.16711389e+03
1.25060878e+03
1.85669111e+03
1.81548154e+03
7.97897892e+02
7.79637586e+02
0.00000000e+00
8.21022956e+02
9.62788341e+02
0.00000000e+00
1.89014131e+03
0.00000000e+00
1.10351178e+03
1.02845978e+03
1.51284196e+03
1.32537944e+03
1.55718979e+03
1.97883992e+03
1.07987398e+03
1.76333477e+03
2.11816150e+03
9.15668800e+02
1.59140114e+03
1.11089354e+03
8.12581690e+02
2.15298456e+03
2.01643338e+03
8.08471581e+02
1.09976709e+03
0.00000000e+00
1.13142585e+03
1.91642182e+03
0.00000000e+00
1.24068498e+03
1.18235354e+03
1.17985974e+03
1.18513638e+03
1.32814016e+03
1.57669060e+03
1.23259541e+03
1.25564407e+03
1.23483935e+03
2.18645826e+03
1.09153047e+03
1.15384590e+03
1.11404208e+03
8.22654156e+02
1.04046866e+03
0.00000000e+00
9.31248752e+02
0.00000000e+00
1.38023243e+03
1.48014115e+03
0.00000000e+00
1.35666235e+03
1.07948445e+03
1.31194921e+03
1.29246216e+03
1.49754119e+03
1.33933096e+03
1.61806408e+03
1.14111126e+03
1.81563358e+03
7.92833848e+02
1.81687380e+03
8.69367475e+02
6.49115032e+02
1.66579014e+03
2.13793777e+03
0.00000000e+00
1.25095717e+03
0.00000000e+00
1.31336965e+03
1.37728108e+03
6.95948529e+02
1.25194656e+03
1.20627250e+03
1.24995131e+03
1.31092350e+03
1.03483281e+03
2.22659770e+03
1.36336832e+03
1.96488751e+03
1.29543798e+03
1.54747861e+03
9.67275633e+02
1.51834219e+03
6.42209529e+02
6.87719972e+02
8.38912676e+02
0.00000000e+00
1.13732307e+03
0.00000000e+00
1.22170351e+03
1.51524068e+03
0.00000000e+00
1.64563094e+03
1.55115964e+03
1.23917641e+03
1.39921300e+03
1.45359243e+03
2.31000151e+03
1.20683483e+03
1.26087580e+03
2.01325398e+03
7.85401351e+02
2.25671573e+03
9.44955082e+02
9.99851992e+02
9.09911947e+02
2.03278062e+03
0.00000000e+00
1.85887013e+03
0.00000000e+00
0.00000000e+00
1.31112568e+03
8.04924245e+02
1.33409031e+03
1.25881438e+03
1.27896787e+03
1.37053053e+03
1.35587844e+03
1.62273433e+03
1.40420387e+03
1.29981127e+03
1.19376850e+03
1.05914712e+03
8.71539646e+02
9.25744134e+02
1.07245971e+03
1.17052182e+03
1.28984449e+03
0.00000000e+00
7.97616256e+02
8.98548085e+02
1.31537423e+03
1.17224185e+03
1.19608591e+03
1.35444075e+03
1.35183667e+03
1.34583729e+03
1.61276508e+03
2.24281661e+03
1.72789973e+03
1.11053952e+03
1.88852217e+03
8.83809232e+02
8.18437686e+02
9.12169726e+02
1.23952185e+03
1.32272139e+03
1.85306187e+03
7.80401097e+02
1.13639356e+03
8.44841284e+02
7.50070727e+02
1.30446709e+03
1.24247015e+03
1.33240720e+03
1.20587475e+03
1.17880874e+03
0.00000000e+00
1.35950804e+03
1.23370212e+03
1.43189544e+03
1.32089567e+03
1.23352253e+03
1.53862850e+03
9.63135451e+02
8.03731433e+02
6.25526219e+02
1.17904104e+03
1.62798215e+03
1.20946816e+03
1.30968801e+03
8.87321504e+02
0.00000000e+00
1.38130959e+03
1.35229874e+03
1.54652224e+03
1.14838870e+03
1.88334387e+03
1.15042203e+03
1.25181840e+03
1.40995530e+03
1.61043015e+03
1.26251459e+03
7.36561294e+02
7.92827052e+02
1.32030802e+03
1.09379740e+03
2.29325635e+03
1.08185837e+03
2.40006157e+03
1.11830572e+03
1.55929650e+03
1.26715375e+03
9.06945281e+02
1.36304910e+03
1.13989176e+03
1.20919154e+03
1.38988198e+03
1.18978794e+03
1.62682432e+03
1.33419538e+03
1.26760966e+03
1.35611999e+03
1.02548827e+03
1.26019354e+03
9.73324648e+02
1.87043436e+03
1.63545869e+03
1.01277641e+03
7.28542446e+02
1.02329821e+03
1.31747620e+03
8.71299764e+02
1.07574981e+03
0.00000000e+00
1.37000437e+03
1.29524628e+03
1.09258416e+03
1.33450396e+03
1.43017845e+03
1.36857298e+03
1.23826229e+03
1.00145428e+03
0.00000000e+00
0.00000000e+00
0.00000000e+00
0.00000000e+00
0.00000000e+00
0.00000000e+00
9.00442465e+02
1.09377340e+03
1.09940757e+03
1.07503472e+03
1.24892873e+03
1.29761245e+03
0.00000000e+00
9.95200050e+02
1.80503883e+03
1.07246924e+03
1.35244278e+03
1.26880161e+03
1.39354150e+03
1.29734455e+03
1.11046104e+03
1.25294396e+03
1.14799569e+03
1.56508154e+03
1.20735065e+03
1.74256879e+03
1.12838814e+03
1.04418884e+03
9.03240824e+02
1.01073752e+03
1.15028955e+03
1.24319411e+03
1.75150420e+03
0.00000000e+00
0.00000000e+00
9.40200500e+02
1.02243831e+03
0.00000000e+00
0.00000000e+00
0.00000000e+00
1.34851734e+03
1.20025815e+03
0.00000000e+00
0.00000000e+00
0.00000000e+00
8.75832884e+02
0.00000000e+00
0.00000000e+00
0.00000000e+00
0.00000000e+00
0.00000000e+00
0.00000000e+00
0.00000000e+00
0.00000000e+00
9.75216314e+02
8.77162031e+02
0.00000000e+00
0.00000000e+00
0.00000000e+00
9.62579838e+02
0.00000000e+00
0.00000000e+00
5.95299173e+02
0.00000000e+00
9.40085379e+02
9.56030915e+02
1.42121733e+03
1.35904382e+03
5.50668235e+02
9.91394553e+02
0.00000000e+00
8.73022366e+02
8.67888905e+02
0.00000000e+00
0.00000000e+00
0.00000000e+00
0.00000000e+00
1.66560266e+03
1.52551690e+03
1.56072977e+03
1.10610583e+03
1.03111118e+03
1.16625457e+03
8.78244092e+02
1.93042756e+03
0.00000000e+00
1.25284991e+03
1.35232201e+03
1.10352534e+03
7.17492756e+02
1.26922071e+03
1.43091151e+03
2.04291500e+03
1.53179762e+03
1.11855649e+03
1.03239357e+03
0.00000000e+00
1.04478844e+03
1.43286104e+03
1.66144503e+03
2.09447598e+03
2.15780351e+03
1.98883195e+03
2.10716616e+03
1.24487170e+03
1.38703276e+03
1.48033575e+03
7.31364127e+02
9.91057144e+02
1.05838298e+03
1.30329385e+03
1.24788942e+03
2.05626104e+03
7.47041415e+02
9.58121734e+02
8.47639329e+02
1.04257024e+03
0.00000000e+00
0.00000000e+00
1.39521778e+03
1.91224149e+03
9.46127140e+02
2.07693115e+03
1.14010145e+03
1.42829416e+03
1.67524298e+03
9.73869184e+02
1.17541144e+03
1.17408476e+03
1.60764569e+03
1.61541474e+03
6.95669185e+02
1.43413798e+03
1.17459856e+03
9.45794186e+02
1.41184038e+03
9.27219704e+02
9.75003171e+02
0.00000000e+00
1.02639229e+03
1.50298719e+03
8.25761799e+02
1.14988472e+03
1.52519790e+03
2.10058695e+03
1.18667206e+03
1.41664101e+03
1.33036169e+03
1.88204294e+03
1.19352884e+03
6.51203210e+02
1.16162374e+03
1.69533793e+03
8.21465570e+02
1.01360027e+03
1.10668499e+03
8.35432420e+02
1.85051095e+03
1.10519780e+03
0.00000000e+00
0.00000000e+00
1.32773638e+03
1.16535322e+03
1.37729738e+03
2.11506290e+03
1.13546439e+03
1.67481010e+03
1.77222221e+03
1.07035106e+03
1.46348704e+03
8.93640535e+02
2.02570961e+03
6.47018034e+02
6.76253556e+02
1.69754680e+03
9.59917860e+02
1.05366651e+03
8.27970557e+02
1.05056729e+03
1.04160356e+03
0.00000000e+00
0.00000000e+00
1.42722523e+03
1.78550108e+03
1.14518025e+03
1.68537625e+03
2.03566539e+03
1.31312707e+03
1.46622248e+03
7.76059065e+02
2.05442239e+03
1.77272395e+03
8.27302079e+02
8.76809884e+02
8.67871587e+02
1.87433705e+03
1.84024689e+03
1.59549839e+03
2.08404680e+03
7.69112796e+02
1.05409247e+03
1.09761922e+03
0.00000000e+00
8.58996014e+02
2.11707568e+03
1.83092271e+03
1.72077539e+03
1.59729175e+03
1.02046890e+03
7.20601754e+02
1.13832903e+03
1.70203542e+03
2.07763363e+03
1.54163265e+03
1.66370646e+03
2.13225935e+03
2.14912198e+03
9.94766418e+02
2.00357898e+03
2.18049379e+03
1.72765461e+03
8.88802382e+02
0.00000000e+00
8.24443211e+02
1.07890896e+03
8.50920550e+02
1.36352482e+03
1.83556476e+03
1.33666539e+03
2.23124918e+03
1.27347665e+03
1.15848021e+03
1.70333961e+03
2.07739191e+03
1.57188193e+03
7.96701866e+02
8.85714450e+02
2.05052903e+03
9.57274877e+02
2.28951926e+03
1.45055382e+03
9.79593758e+02
8.77372684e+02
0.00000000e+00
0.00000000e+00
8.65360487e+02
1.73623538e+03
1.20010855e+03
2.23639305e+03
2.23879088e+03
1.96440760e+03
4.71458173e+02
8.02443304e+02
1.49669119e+03
1.33258684e+03
1.97515461e+03
1.33902101e+03
6.98347839e+02
1.60374741e+03
7.70606658e+02
1.26295665e+03
1.04183796e+03
7.44194894e+02
9.51064884e+02
0.00000000e+00
0.00000000e+00
0.00000000e+00
1.65152118e+03
1.33033795e+03
1.78728415e+03
1.93407328e+03
1.51283341e+03
1.31107683e+03
2.31158344e+03
2.22987489e+03
1.48178827e+03
2.14032172e+03
6.14488135e+02
2.27305617e+03
1.78986326e+03
1.11668276e+03
1.11241505e+03
1.19705533e+03
9.39986291e+02
0.00000000e+00
0.00000000e+00
0.00000000e+00
1.12793902e+03
2.33503412e+03
1.32644680e+03
1.66340056e+03
5.70979762e+02
1.28276399e+03
8.81344292e+02
2.16398279e+03
1.65268606e+03
1.31251831e+03
1.19780844e+03
1.09568142e+03
1.58458433e+03
1.18545213e+03
1.24937493e+03
1.14544030e+03
1.22354432e+03
2.09013637e+03
0.00000000e+00
0.00000000e+00
1.43671132e+03
0.00000000e+00
1.70346078e+03
1.33646066e+03
1.86460932e+03
9.58473184e+02
2.11693888e+03
1.97626385e+03
1.96572298e+03
1.95011245e+03
1.34495947e+03
1.93783656e+03
7.71941228e+02
2.02161482e+03
8.32994384e+02
2.18854088e+03
2.35852343e+03
1.27406729e+03
2.17180304e+03
0.00000000e+00
8.10431457e+02
1.54461970e+03
1.24450937e+03
2.32606724e+03
1.37380957e+03
2.41098133e+03
1.44496361e+03
1.40699078e+03
1.01200592e+03
1.52314330e+03
1.76176855e+03
1.03981831e+03
2.32509890e+03
2.31398448e+03
2.19431423e+03
6.25052392e+02
9.40984575e+02
2.20009064e+03
1.49246213e+03
1.26615745e+03
6.30724999e+02
8.76902176e+02
1.61109445e+03
1.78906745e+03
1.81078643e+03
1.66027874e+03
1.96680674e+03
1.81237353e+03
1.39514478e+03
1.34621625e+03
1.85668947e+03
1.64890159e+03
1.34611475e+03
1.85192615e+03
1.66416130e+03
6.75742308e+02
2.09430540e+03
2.05595058e+03
5.70663244e+02
1.58870361e+03
1.87428322e+03
9.33586387e+02
7.75295203e+02
1.56558719e+03
1.46262057e+03
2.01412182e+03
1.67819548e+03
1.87058731e+03
1.92677465e+03
2.00535058e+03
1.35618011e+03
2.33522246e+03
1.59808954e+03
9.01522042e+02
2.05312652e+03
2.33947698e+03
1.19098461e+03
1.69145050e+03
2.09619486e+03
1.96012810e+03
1.58628178e+03
1.31962029e+03
1.01736211e+03
9.58111907e+02
1.38300147e+03
1.87027065e+03
0.00000000e+00
2.14796666e+03
1.39295144e+03
1.25173791e+03
7.56307819e+02
1.32692795e+03
1.61601578e+03
2.04600870e+03
1.75622177e+03
1.34787194e+03
6.73820251e+02
1.09294183e+03
2.39123551e+03
7.12635107e+02
2.25186727e+03
1.97848045e+03
2.02165653e+03
1.32514006e+03
8.79713013e+02
9.79586582e+02
1.21923452e+03
1.40869660e+03
1.34477076e+03
1.20312672e+03
1.90555891e+03
1.88825657e+03
1.64496539e+03
1.30657155e+03
1.10745205e+03
1.14149969e+03
8.97636927e+02
7.36305788e+02
1.22347910e+03
1.37389196e+03
2.05423443e+03
1.83158778e+03
1.62453211e+03
1.51599930e+03
1.21833870e+03
0.00000000e+00
0.00000000e+00
1.21056303e+03
1.79403503e+03
1.73784246e+03
1.41208999e+03
2.33892842e+03
1.39642531e+03
1.77897649e+03
2.00009602e+03
1.71933814e+03
1.41611993e+03
2.28481939e+03
1.88385120e+03
1.33863371e+03
1.38315767e+03
1.86490336e+03
1.94808871e+03
2.22760408e+03
1.78763152e+03
1.31041908e+03
9.01745483e+02
0.00000000e+00
1.22235754e+03
1.18424364e+03
1.50231062e+03
1.91567130e+03
1.60223866e+03
1.34029096e+03
1.06975621e+03
1.06260038e+03
1.11789859e+03
1.08746996e+03
9.80179546e+02
9.96539013e+02
8.93143960e+02
1.16770137e+03
1.01879593e+03
1.26809886e+03
1.14323222e+03
1.65117456e+03
1.33995614e+03
9.70140664e+02
0.00000000e+00
8.17869947e+02
9.19690300e+02
9.20481560e+02
0.00000000e+00
1.10876833e+03
0.00000000e+00
1.29121435e+03
0.00000000e+00
0.00000000e+00
9.69659868e+02
7.74401788e+02
0.00000000e+00
0.00000000e+00
0.00000000e+00
0.00000000e+00
0.00000000e+00
6.08791848e+02
0.00000000e+00
0.00000000e+00
8.81838591e+02
7.28390446e+02
1.43691508e+03
0.00000000e+00
2.21648433e+03
1.26811740e+03
1.34760885e+03