# vtk DataFile Version 3.0
MPS 3D Simulation Step 8600
ASCII
DATASET UNSTRUCTURED_GRID
POINTS 20213 double
-1.16469565e-03 3.20097489e-04 -7.69947821e-04
-1.07816099e-03 1.69764369e-04 -7.93905175e-04
-9.55442343e-04 2.84750202e-04 -1.00804993e-03
-8.98469499e-04 3.20531078e-04 -1.06550115e-03
-8.65551405e-04 1.74132859e-04 -1.02461197e-03
-8.38259458e-04 3.47658434e-04 -1.11519135e-03
-6.14309981e-04 2.44429041e-04 -1.22593959e-03
-4.87357932e-04 2.57428826e-04 -1.29166880e-03
-4.57027167e-04 4.13281744e-04 -1.23128269e-03
-3.88320978e-04 8.47135569e-04 -1.12695856e-03
-2.28654194e-04 9.34993436e-04 -1.12051467e-03
-3.62239106e-04 9.19170832e-04 -1.20529655e-03
-8.43705706e-05 6.93645389e-04 -1.08332917e-03
-5.89214084e-05 2.03265743e-04 -1.35407191e-03
2.22794682e-05 2.67658415e-04 -1.38198924e-03
5.07766502e-04 1.34363196e-04 -1.21591561e-03
1.80344947e-04 7.58891204e-04 -6.74292135e-04
4.83544567e-04 2.26422312e-04 -1.28181796e-03
5.44302114e-04 7.81417264e-04 -1.07568395e-03
7.44879937e-04 8.53006915e-04 -9.03499197e-04
1.10080308e-03 6.39317596e-04 -7.51499062e-04
-1.12337991e-03 2.39000371e-04 -7.77675663e-04
-1.06857466e-03 2.26872885e-04 -8.48437908e-04
-1.02175045e-03 3.33960793e-04 -9.59039102e-04
-9.15027290e-04 4.05085800e-04 -1.07011181e-03
-8.76257685e-04 5.10317891e-04 -1.11332498e-03
-9.92337884e-04 4.42564191e-04 -1.01306107e-03
-7.79994701e-04 4.00084021e-04 -1.16740247e-03
-5.95368022e-04 3.75459953e-04 -1.27951382e-03
-3.91937290e-04 2.32198031e-04 -1.31134815e-03
-4.08580314e-04 1.21556930e-04 -1.23717009e-03
-1.22874429e-04 2.52660199e-04 -1.37585888e-03
9.82977149e-05 2.09085110e-04 -1.35066354e-03
1.70851619e-04 3.94960172e-04 -1.40375060e-03
2.61575863e-04 3.41680628e-04 -1.38064554e-03
2.55709048e-04 2.62292029e-04 -1.35410363e-03
4.45236623e-04 1.62440622e-04 -1.26056809e-03
4.13757893e-04 3.20758484e-04 -1.34140235e-03
4.09572487e-04 7.42100517e-04 -1.24686212e-03
4.08386296e-04 2.41650765e-04 -1.31316227e-03
5.52181211e-04 2.02408075e-04 -1.24169943e-03
7.98280503e-04 1.25458219e-04 -1.04327102e-03
-1.11321802e-03 3.06528826e-04 -8.32959564e-04
-1.08765681e-03 3.72382694e-04 -8.94350071e-04
-1.08656519e-03 5.72374254e-04 -9.37126551e-04
-8.30951954e-04 2.65687441e-04 -1.09023251e-03
-9.68788044e-04 3.64304480e-04 -1.01901898e-03
-8.53500066e-04 4.30418527e-04 -1.12061582e-03
-5.64631157e-04 2.97295707e-04 -1.27244015e-03
-6.94467286e-04 2.76666761e-04 -1.18819229e-03
-4.31269326e-04 3.78361764e-04 -1.34154647e-03
-3.14727331e-04 2.48335629e-04 -1.33716756e-03
-1.39587755e-04 4.32405927e-04 -1.41480533e-03
-5.53714033e-05 2.90737927e-04 -1.39147916e-03
1.03131656e-04 4.56218289e-04 -1.41663915e-03
3.37222201e-04 3.71243643e-04 -1.37427910e-03
2.48003590e-04 1.84998901e-04 -1.31793143e-03
3.99966042e-04 4.80238026e-04 -1.37208090e-03
4.85790407e-04 3.94656707e-04 -1.33165923e-03
4.11788602e-04 4.00170552e-04 -1.35962219e-03
6.30952000e-04 2.78002507e-04 -1.23579749e-03
7.41337446e-04 1.93369573e-04 -1.13600556e-03
7.13631942e-04 1.26020818e-04 -1.09539795e-03
-1.19217273e-03 4.11568034e-04 -7.65554139e-04
-1.10533292e-03 4.55094492e-04 -8.93124068e-04
-1.06055091e-03 4.96314168e-04 -9.53919780e-04
-9.39069121e-04 4.85425637e-04 -1.06454903e-03
-8.01653084e-04 4.87196435e-04 -1.16461806e-03
-7.14370417e-04 3.57528547e-04 -1.20368136e-03
-6.43739507e-04 3.19897890e-04 -1.23819515e-03
-3.48071601e-04 3.28715377e-04 -1.35441573e-03
-2.79426728e-04 3.84720768e-04 -1.38570640e-03
-3.54164561e-04 1.70791758e-04 -1.28989355e-03
-6.82000766e-05 4.74221756e-04 -1.42205094e-03
-1.50019264e-04 1.89089965e-04 -1.34177762e-03
-5.59263377e-05 3.91533172e-04 -1.41462583e-03
1.15727160e-05 3.44003032e-04 -1.40531254e-03
2.45920023e-04 4.21606554e-04 -1.40060339e-03
3.36853844e-04 2.90504847e-04 -1.35094754e-03
4.08736744e-04 5.64889291e-04 -1.37084336e-03
6.96423685e-04 3.33115312e-04 -1.21974407e-03
7.02289530e-04 2.55577929e-04 -1.18737804e-03
7.88298603e-04 2.62053566e-04 -1.13897866e-03
8.64587743e-04 2.70137243e-04 -1.08716320e-03
-1.21021608e-03 5.01182318e-04 -7.58080064e-04
-1.03568655e-03 5.99845540e-04 -9.91300525e-04
-1.04395575e-03 4.13180988e-04 -9.55963237e-04
-8.26747845e-04 5.68962424e-04 -1.15736168e-03
-6.76263688e-04 4.99769892e-04 -1.25212026e-03
-7.31044783e-04 4.52197975e-04 -1.21127468e-03
-3.62946689e-04 4.16413935e-04 -1.36683719e-03
-2.93621985e-04 4.65559918e-04 -1.39257765e-03
-2.01087237e-04 3.80391746e-04 -1.40173391e-03
-1.51457536e-04 5.20970426e-04 -1.41773244e-03
-7.21102079e-05 5.62878149e-04 -1.42284049e-03
-1.86260116e-04 3.00085816e-04 -1.38504076e-03
5.54555375e-06 5.12756606e-04 -1.42450640e-03
2.35013907e-04 5.84418824e-04 -1.41666050e-03
2.28249369e-05 4.30498343e-04 -1.41730538e-03
3.23173764e-04 4.49919552e-04 -1.39053769e-03
3.33729688e-04 5.38668040e-04 -1.39494603e-03
5.55489713e-04 2.80743993e-04 -1.27251001e-03
7.64145990e-04 3.27775134e-04 -1.17818080e-03
8.39140507e-04 3.34105888e-04 -1.13080040e-03
8.18630017e-04 4.06453811e-04 -1.16159819e-03
-1.19723161e-03 6.34974160e-04 -7.89365126e-04
-1.12994497e-03 5.34234658e-04 -8.80356418e-04
-9.77875803e-04 6.38376305e-04 -1.04548881e-03
-1.00748041e-03 5.25837761e-04 -1.00960005e-03
-7.50083390e-04 5.38329948e-04 -1.20817834e-03
-6.07112445e-04 4.68617424e-04 -1.28652239e-03
-5.35562886e-04 4.17313364e-04 -1.31104439e-03
-4.66594681e-04 4.51867850e-04 -1.33962222e-03
-2.16490874e-04 4.70282492e-04 -1.40785255e-03
-3.22796782e-04 5.38277456e-04 -1.38905236e-03
-2.39187878e-04 5.54776615e-04 -1.40710195e-03
-1.21276047e-04 3.43916037e-04 -1.40370510e-03
1.79133474e-04 4.86517464e-04 -1.41685754e-03
2.58129174e-04 5.06912991e-04 -1.40971080e-03
1.01948862e-04 2.88983871e-04 -1.38118235e-03
2.20682835e-04 7.51169405e-04 -1.40026845e-03
3.08404326e-04 6.14387323e-04 -1.40248820e-03
4.73450482e-04 4.89316798e-04 -1.34458117e-03
6.25644274e-04 3.55484261e-04 -1.26213760e-03
7.49980627e-04 4.08140097e-04 -1.20379187e-03
9.29948855e-04 4.62697594e-04 -1.08867019e-03
-1.17892784e-03 5.59687689e-04 -8.15299902e-04
-1.16107302e-03 4.71740091e-04 -8.25148174e-04
-1.02659413e-03 6.83885242e-04 -9.91599104e-04
-8.96463023e-04 5.98275500e-04 -1.10855326e-03
-7.70938113e-04 6.21766682e-04 -1.20113799e-03
-6.16446524e-04 5.55636665e-04 -1.28681111e-03
-5.38210723e-04 5.06438093e-04 -1.31847673e-03
-3.93983393e-04 4.92562141e-04 -1.36517184e-03
-4.66874866e-04 5.42173848e-04 -1.34491045e-03
-3.93515541e-04 5.81105987e-04 -1.37077307e-03
-1.64557660e-04 6.01433293e-04 -1.41810413e-03
1.34958957e-05 5.98273890e-04 -1.42540939e-03
8.31894595e-05 5.37304783e-04 -1.42445910e-03
1.58106950e-04 5.67009576e-04 -1.42415507e-03
1.70852938e-04 6.54565147e-04 -1.42230436e-03
4.85782665e-04 5.68823740e-04 -1.34014100e-03
4.57834871e-04 6.50773780e-04 -1.34941339e-03
5.53972066e-04 3.64752893e-04 -1.29665955e-03
5.41365576e-04 4.57570724e-04 -1.31274521e-03
8.58144301e-04 4.76446743e-04 -1.14062014e-03
8.26353352e-04 5.60521229e-04 -1.16116528e-03
-1.20089394e-03 7.21390588e-04 -7.68816855e-04
-1.13733814e-03 6.17599648e-04 -8.76845609e-04
-1.08763840e-03 6.55984578e-04 -9.34350056e-04
-9.51748035e-04 5.64836595e-04 -1.06209951e-03
-6.92504292e-04 5.86484431e-04 -1.24710242e-03
-5.48899558e-04 5.91051848e-04 -1.31920386e-03
-5.65678412e-04 6.69126493e-04 -1.30966706e-03
-4.78092875e-04 6.25877068e-04 -1.34467905e-03
-4.01410384e-04 6.57269355e-04 -1.36846483e-03
-3.06540070e-04 6.17496055e-04 -1.39453069e-03
-2.29628855e-04 6.45998891e-04 -1.40855577e-03
-8.66233788e-05 6.41969475e-04 -1.42148076e-03
-1.16580960e-05 6.75461269e-04 -1.42372467e-03
9.38933906e-05 6.29943331e-04 -1.42517319e-03
1.42287722e-04 7.32942802e-04 -1.41353388e-03
3.80312000e-04 6.43241365e-04 -1.37793115e-03
3.20861316e-04 7.02448446e-04 -1.38650462e-03
5.38580073e-04 6.34657121e-04 -1.31416559e-03
6.11712269e-04 4.40921529e-04 -1.27954420e-03
7.82439734e-04 4.89002712e-04 -1.18886421e-03
7.92586549e-04 6.51030681e-04 -1.17714762e-03
-1.16213739e-03 6.83366018e-04 -8.39767327e-04
-1.11545612e-03 7.22346934e-04 -8.89822931e-04
-1.06115585e-03 7.45294633e-04 -9.46548750e-04
-7.84760160e-04 7.00349674e-04 -1.18884934e-03
-7.08381964e-04 6.69923666e-04 -1.23724997e-03
-6.32271795e-04 6.37316769e-04 -1.28075418e-03
-5.77004624e-04 7.49356587e-04 -1.29267659e-03
-4.96581284e-04 7.05735141e-04 -1.33216380e-03
-4.22621910e-04 7.32849996e-04 -1.35468616e-03
-3.30963331e-04 6.92399835e-04 -1.38673119e-03
-2.54858202e-04 7.22220779e-04 -1.39915478e-03
-1.57725642e-04 6.93729131e-04 -1.41311842e-03
-7.98619301e-05 7.30678340e-04 -1.41368894e-03
-4.89506706e-07 7.62966169e-04 -1.41133532e-03
6.52784424e-05 7.06006563e-04 -1.42070229e-03
2.96779294e-04 7.76589976e-04 -1.37817025e-03
3.11893804e-04 8.63681188e-04 -1.34754482e-03
4.08041103e-04 7.22380411e-04 -1.35755489e-03
5.59040628e-04 5.40967987e-04 -1.30601867e-03
6.81076737e-04 4.19586112e-04 -1.24225693e-03
7.57133886e-04 5.75017468e-04 -1.20391348e-03
-1.15678655e-03 7.70653749e-04 -8.19391204e-04
-1.04891902e-03 8.27745597e-04 -9.27414686e-04
-9.67498924e-04 7.23880927e-04 -1.04314205e-03
-8.42956649e-04 6.52927748e-04 -1.14898895e-03
-7.97364313e-04 7.81800608e-04 -1.16691626e-03
-6.46956789e-04 7.18686292e-04 -1.26524106e-03
-6.58294570e-04 7.96942134e-04 -1.24309878e-03
-5.05171543e-04 7.87519631e-04 -1.31425768e-03
-4.30034902e-04 8.11861843e-04 -1.33503332e-03
-3.48164958e-04 7.67230568e-04 -1.37000253e-03
-2.74198757e-04 8.05510451e-04 -1.38086125e-03
-1.89997438e-04 7.70404801e-04 -1.40103631e-03
-1.17563827e-04 8.01687645e-04 -1.40497096e-03
-4.13419763e-05 8.33072425e-04 -1.39833098e-03
8.06419631e-05 7.93448615e-04 -1.40548278e-03
2.35017404e-04 8.38956986e-04 -1.37344502e-03
4.00066042e-04 8.72836481e-04 -1.32234831e-03
3.71066245e-04 7.97377947e-04 -1.35158165e-03
6.09748191e-04 6.07874350e-04 -1.28011903e-03
7.08225600e-04 4.99109304e-04 -1.23046872e-03
7.45569096e-04 7.38964564e-04 -1.19790065e-03
-1.10592301e-03 8.05789764e-04 -8.72091706e-04
-1.03654531e-03 9.06942379e-04 -9.01938456e-04
[...]
POINT_DATA 20213
SCALARS pressure double 1
LOOKUP_TABLE default
0.00000000e+00
0.00000000e+00
0.00000000e+00
0.00000000e+00
0.00000000e+00
0.00000000e+00
0.00000000e+00
1.07827152e+03
1.14813917e+03
1.04947379e+03
1.12648392e+03
8.66210659e+02
1.43332743e+03
0.00000000e+00
0.00000000e+00
0.00000000e+00
2.12115311e+03
1.22047467e+03
9.44384603e+02
1.07536293e+03
8.65637903e+02
3.80200353e+02
0.00000000e+00
0.00000000e+00
0.00000000e+00
0.00000000e+00
0.00000000e+00
0.00000000e+00
9.25976457e+02
1.15912049e+03
8.67453582e+02
6.21628119e+02
0.00000000e+00
8.33859500e+02
1.26058604e+03
1.17574650e+03
9.97066330e+02
1.73684744e+03
9.78776937e+02
1.47547778e+03
0.00000000e+00
0.00000000e+00
0.00000000e+00
0.00000000e+00
0.00000000e+00
0.00000000e+00
0.00000000e+00
0.00000000e+00
0.00000000e+00
0.00000000e+00
1.04875366e+03
9.12075028e+02
0.00000000e+00
0.00000000e+00
0.00000000e+00
1.62729868e+03
0.00000000e+00
1.35749972e+03
1.46494072e+03
1.64563005e+03
8.68687138e+02
7.49792017e+02
5.98059472e+02
0.00000000e+00
0.00000000e+00
0.00000000e+00
0.00000000e+00
8.26265980e+02
0.00000000e+00
0.00000000e+00
9.88989228e+02
0.00000000e+00
9.20640297e+02
0.00000000e+00
6.79012954e+02
0.00000000e+00
0.00000000e+00
0.00000000e+00
1.50140655e+03
9.50860714e+02
9.22762087e+02
0.00000000e+00
0.00000000e+00
0.00000000e+00
7.82351638e+02
0.00000000e+00
0.00000000e+00
1.09074854e+03
0.00000000e+00
9.07500027e+02
7.35164093e+02
0.00000000e+00
0.00000000e+00
0.00000000e+00
0.00000000e+00
0.00000000e+00
0.00000000e+00
9.25775358e+02
0.00000000e+00
1.28320821e+03
1.05051062e+03
1.03107706e+03
1.01051666e+03
1.02349201e+03
1.01063553e+03
7.82837390e+02
6.10422029e+02
0.00000000e+00
0.00000000e+00
1.12825472e+03
0.00000000e+00
1.07662169e+03
0.00000000e+00
0.00000000e+00
0.00000000e+00
0.00000000e+00
0.00000000e+00
0.00000000e+00
9.56321957e+02
0.00000000e+00
1.17943767e+03
0.00000000e+00
0.00000000e+00
0.00000000e+00
0.00000000e+00
9.87580663e+02
7.52922771e+02
5.91871873e+02
0.00000000e+00
9.02765188e+02
1.24758574e+03
1.06957319e+03
0.00000000e+00
0.00000000e+00
8.99425261e+02
7.41671865e+02
0.00000000e+00
6.18627707e+02
0.00000000e+00
0.00000000e+00
0.00000000e+00
0.00000000e+00
0.00000000e+00
1.06818319e+03
0.00000000e+00
8.89638641e+02
0.00000000e+00
0.00000000e+00
0.00000000e+00
0.00000000e+00
5.70772320e+02
1.24376251e+03
1.09730013e+03
1.20309751e+03
8.98926141e+02
0.00000000e+00
0.00000000e+00
7.12732605e+02
0.00000000e+00
0.00000000e+00
9.51220231e+02
1.09327363e+03
0.00000000e+00
9.84265094e+02
0.00000000e+00
0.00000000e+00
0.00000000e+00
6.33664573e+02
0.00000000e+00
5.98586790e+02
0.00000000e+00
1.15394278e+03
1.31852939e+03
1.27270742e+03
9.46189235e+02
0.00000000e+00
0.00000000e+00
0.00000000e+00
8.26255462e+02
0.00000000e+00
8.17554223e+02
9.66377834e+02
1.00579014e+03
1.13892072e+03
1.32685962e+03
0.00000000e+00
0.00000000e+00
0.00000000e+00
0.00000000e+00
0.00000000e+00
7.33481140e+02
0.00000000e+00
1.16220956e+03
1.05582997e+03
1.12585664e+03
9.11525589e+02
0.00000000e+00
0.00000000e+00
7.80934791e+02
9.28811147e+02
8.66080452e+02
0.00000000e+00
1.01663194e+03
1.17609492e+03
1.36945568e+03
1.05844859e+03
0.00000000e+00
0.00000000e+00
0.00000000e+00
6.20420055e+02
0.00000000e+00
8.89950899e+02
0.00000000e+00
1.00091001e+03
1.12676071e+03
0.00000000e+00
6.83914544e+02
0.00000000e+00
6.30317692e+02
0.00000000e+00
7.16470079e+02
7.91455568e+02
0.00000000e+00
0.00000000e+00
1.19820537e+03
1.36355469e+03
1.42341141e+03
8.09978261e+02
6.71711775e+02
0.00000000e+00
0.00000000e+00
0.00000000e+00
6.18761070e+02
9.46421854e+02
0.00000000e+00
7.45527238e+02
0.00000000e+00
0.00000000e+00
0.00000000e+00
0.00000000e+00
6.39670256e+02
7.02936125e+02
0.00000000e+00
0.00000000e+00
1.17386665e+03
1.41159634e+03
1.40930504e+03
7.31556177e+02
9.23307334e+02
0.00000000e+00
5.35322978e+02
0.00000000e+00
0.00000000e+00
0.00000000e+00
1.03357014e+03
0.00000000e+00
0.00000000e+00
0.00000000e+00
0.00000000e+00
0.00000000e+00
0.00000000e+00
0.00000000e+00
0.00000000e+00
0.00000000e+00
0.00000000e+00
1.35390304e+03
1.36331127e+03
1.11900273e+03
1.20611355e+03
0.00000000e+00
0.00000000e+00
0.00000000e+00
0.00000000e+00
0.00000000e+00
9.83891108e+02
0.00000000e+00
1.02781379e+03
6.10687937e+02
5.71766472e+02
0.00000000e+00
0.00000000e+00
7.60138840e+02
7.30310344e+02
0.00000000e+00
0.00000000e+00
1.06593498e+03
1.13278653e+03
0.00000000e+00
1.25243923e+03
1.01751371e+03
0.00000000e+00
0.00000000e+00
0.00000000e+00
0.00000000e+00
7.31057921e+02
9.25583293e+02
1.01929438e+03
0.00000000e+00
9.43399951e+02
0.00000000e+00
0.00000000e+00
5.73546332e+02
0.00000000e+00
0.00000000e+00
7.37086808e+02
7.62590018e+02
8.26387128e+02
9.48198070e+02
0.00000000e+00
0.00000000e+00
7.98773454e+02
7.89734676e+02
0.00000000e+00
5.73601921e+02
0.00000000e+00
0.00000000e+00
7.70226007e+02
9.06473390e+02
0.00000000e+00
7.25905840e+02
0.00000000e+00
4.12503547e+02
0.00000000e+00
7.41765531e+02
7.38210433e+02
6.65782712e+02
7.96044031e+02
9.10027376e+02
0.00000000e+00
9.75768125e+02
0.00000000e+00
9.93133918e+02
0.00000000e+00
0.00000000e+00
6.17073586e+02
6.68822344e+02
7.14286485e+02
0.00000000e+00
0.00000000e+00
0.00000000e+00
0.00000000e+00
0.00000000e+00
0.00000000e+00
0.00000000e+00
8.21412534e+02
6.83308771e+02
0.00000000e+00
0.00000000e+00
8.01996971e+02
8.35591654e+02
8.71480352e+02
1.08878745e+03
9.29697194e+02
7.64190430e+02
0.00000000e+00
0.00000000e+00
0.00000000e+00
8.58247903e+02
8.42498449e+02
0.00000000e+00
8.26834675e+02
5.54856387e+02
0.00000000e+00
0.00000000e+00
0.00000000e+00
0.00000000e+00
0.00000000e+00
0.00000000e+00
0.00000000e+00
0.00000000e+00
0.00000000e+00
1.06386952e+03
1.16259552e+03
1.11141834e+03
0.00000000e+00
0.00000000e+00
0.00000000e+00
6.49937931e+02
0.00000000e+00
9.87000645e+02
9.57231899e+02
0.00000000e+00
0.00000000e+00
0.00000000e+00
0.00000000e+00
0.00000000e+00
0.00000000e+00
6.63331690e+02
0.00000000e+00
0.00000000e+00
0.00000000e+00
0.00000000e+00
0.00000000e+00
9.67826050e+02
0.00000000e+00
0.00000000e+00
0.00000000e+00
1.02501188e+03
6.59493359e+02
1.05260406e+03
0.00000000e+00
0.00000000e+00
8.09033062e+02
0.00000000e+00
0.00000000e+00
0.00000000e+00
0.00000000e+00
0.00000000e+00
0.00000000e+00
0.00000000e+00
0.00000000e+00
0.00000000e+00
0.00000000e+00
0.00000000e+00
1.12525324e+03
1.20051504e+03
0.00000000e+00
0.00000000e+00
1.09384149e+03
9.90618875e+02
9.69907667e+02
0.00000000e+00
0.00000000e+00
8.86252217e+02
8.70863838e+02
0.00000000e+00
0.00000000e+00
0.00000000e+00
0.00000000e+00
0.00000000e+00
0.00000000e+00
6.37223712e+02
7.51551590e+02
0.00000000e+00
0.00000000e+00
0.00000000e+00
9.93507990e+02
0.00000000e+00
1.14176105e+03
1.27390444e+03
1.53046562e+03
0.00000000e+00
0.00000000e+00
7.50044299e+02
0.00000000e+00
0.00000000e+00
0.00000000e+00
1.75304702e+03
0.00000000e+00
1.19111756e+03
1.28684731e+03
1.66142363e+03
1.92703488e+03
1.33056611e+03
8.96941949e+02
9.55857287e+02
1.51454228e+03
1.46732573e+03
1.03257705e+03
1.08530066e+03
6.17422210e+02
7.26784120e+02
0.00000000e+00
1.03960940e+03
1.08723137e+03
1.82434625e+03
9.05298835e+02
1.19818627e+03
9.44821151e+02
1.33199052e+03
1.01057683e+03
1.65683531e+03
2.21670492e+03
2.25607574e+03
1.09152580e+03
2.32190811e+03
1.92249459e+03
1.45231080e+03
1.29558345e+03
1.26451665e+03
1.52535490e+03
1.26975334e+03
9.64808491e+02
0.00000000e+00
1.21004938e+03
1.30125215e+03
1.51972737e+03
3.72810737e+02
9.90826558e+02
1.97121782e+03
1.11831528e+03
6.28452659e+02
8.87941527e+02
8.04996218e+02
0.00000000e+00
0.00000000e+00
6.57906740e+02
1.73972428e+03
1.15573198e+03
1.23032282e+03
8.74798297e+02
1.25715302e+03
1.14326993e+03
7.31713872e+02
6.68760056e+02
8.86156871e+02
2.17720563e+03
8.53359010e+02
1.08773019e+03
1.69937060e+03
7.45730551e+02
1.31938152e+03
1.18632101e+03
8.68093821e+02
1.30028924e+03
1.56669002e+03
1.84448019e+03
1.17210079e+03
1.00761255e+03
1.06715572e+03
1.59526371e+03
1.74230004e+03
1.04098994e+03
1.82152098e+03
9.73760273e+02
0.00000000e+00
1.22706614e+03
1.95916050e+03
1.90782335e+03
2.24875584e+03
1.87753746e+03
2.00793964e+03
8.35134368e+02
8.90622659e+02
1.63824915e+03
1.82722100e+03
2.04268470e+03
1.22397449e+03
8.13576540e+02
0.00000000e+00
2.20625709e+03
1.11569021e+03
1.19583814e+03
1.37640795e+03
8.57696568e+02
0.00000000e+00
6.65431106e+02
1.63870786e+03
1.10009541e+03
1.12736408e+03
1.75056185e+03
8.83063558e+02
2.18869553e+03
1.32245806e+03
7.80125219e+02
8.61400684e+02
2.18786543e+03
8.03736073e+02
1.56312073e+03
1.38704366e+03
9.73587488e+02
0.00000000e+00
1.30793976e+03
1.19545456e+03
8.67242085e+02
1.50341033e+03
8.91670072e+02
7.54229705e+02
1.31834694e+03
1.34300255e+03
1.63769775e+03
1.54221441e+03
9.47315057e+02
1.83602889e+03
1.36482819e+03
7.28220506e+02
1.78623590e+03
7.25874337e+02
1.47140080e+03
2.32204104e+03
1.15736833e+03
1.23392076e+03
1.46124357e+03
1.30753780e+03
9.48240418e+02
1.08460585e+03
8.53687580e+02
0.00000000e+00
7.48267167e+02
1.11125728e+03
0.00000000e+00
1.30492362e+03
1.31217771e+03
1.72140810e+03
1.55027524e+03
2.08882947e+03
1.61134360e+03
1.88914508e+03
1.24300671e+03
9.65959774e+02
1.97461464e+03
1.19132272e+03
1.65508731e+03
1.93768579e+03
1.14885206e+03
1.02375382e+03
0.00000000e+00
1.03067097e+03
7.73454464e+02
0.00000000e+00
1.96885400e+03
0.00000000e+00
1.85118249e+03
1.01152235e+03
1.64880776e+03
1.17430825e+03
1.84435678e+03
1.65269926e+03
7.58948692e+02
1.49503893e+03
2.21718674e+03
7.16372708e+02
1.56981119e+03
1.01601249e+03
1.08555000e+03
2.43179594e+03
2.27578217e+03
0.00000000e+00
1.41731843e+03
8.10555345e+02
0.00000000e+00
1.98369797e+03
8.32221969e+02
1.17222179e+03
8.10737191e+02
6.09568568e+02
6.29558749e+02
5.20915857e+02
1.82892486e+03
9.15352569e+02
9.90863486e+02
1.06405576e+03
2.29246742e+03
9.62599382e+02
8.43948710e+02
1.10872215e+03
9.39578896e+02
1.32895642e+03
0.00000000e+00
1.28139546e+03
6.76685785e+02
6.76786601e+02
1.71873792e+03
0.00000000e+00
1.17654020e+03
8.99336813e+02
9.39136819e+02
8.23194167e+02
1.62174118e+03
1.66317970e+03
1.85367024e+03
9.19226142e+02
1.94689786e+03
1.35123997e+03
1.90639969e+03
1.03499371e+03
1.09624225e+03
1.56756259e+03
2.25183045e+03
0.00000000e+00
1.41366785e+03
7.93443094e+02
0.00000000e+00
1.23785923e+03
9.75899197e+02
1.00166720e+03
8.64979757e+02
4.99504278e+02
1.17933396e+03
6.04599076e+02
2.26074206e+03
1.53042192e+03
2.00651877e+03
1.24517467e+03
1.48923327e+03
7.23110647e+02
1.59825118e+03
1.10447661e+03
1.14276298e+03
1.31619588e+03
0.00000000e+00
1.30551511e+03
0.00000000e+00
0.00000000e+00
1.75146424e+03
8.71279282e+02
1.59024516e+03
1.57356916e+03
7.32510605e+02
9.12042846e+02
1.77609442e+03
1.85348952e+03
9.31212138e+02
1.33749839e+03
2.16882395e+03
1.10917155e+03
2.48261723e+03
1.17753147e+03
1.17339100e+03
1.22146351e+03
2.30555165e+03
0.00000000e+00
2.02078419e+03
0.00000000e+00
5.29423363e+02
1.03933913e+03
9.89982683e+02
1.42351978e+03
9.87767381e+02
7.97015012e+02
1.28827254e+03
1.39761507e+03
1.80963735e+03
5.36541081e+02
1.01470486e+03
7.03053056e+02
9.92118168e+02
6.91625129e+02
8.20888596e+02
1.29814183e+03
1.28218104e+03
1.31036663e+03
0.00000000e+00
1.21049589e+03
0.00000000e+00
0.00000000e+00
1.00853920e+03
1.08010768e+03
1.24481922e+03
1.50304201e+03
1.22743023e+03
1.59210031e+03
2.08651422e+03
1.83989581e+03
5.99489427e+02
2.07903956e+03
8.00803443e+02
7.45280022e+02
6.49092243e+02
1.18814110e+03
1.28535236e+03
1.89157881e+03
1.09598370e+03
1.35243823e+03
1.42850404e+03
7.39089193e+02
6.53156652e+02
1.16478414e+03
1.22965192e+03
9.70380738e+02
8.25410498e+02
0.00000000e+00
9.54215782e+02
6.45998981e+02
8.14160319e+02
8.46691689e+02
1.17289508e+03
1.88109329e+03
1.08370569e+03
8.86814785e+02
9.23370064e+02
0.00000000e+00
1.57534200e+03
1.20569207e+03
1.27595408e+03
1.23930704e+03
0.00000000e+00
0.00000000e+00
1.30388909e+03
1.59064263e+03
1.03971449e+03
2.04745394e+03
8.26643202e+02
9.49387029e+02
5.66762668e+02
1.68624533e+03
5.54902808e+02
8.31739139e+02
8.79088755e+02
1.21328153e+03
1.03633320e+03
2.55410481e+03
1.04460992e+03
2.32151356e+03
1.22548113e+03
1.76524203e+03
9.56539822e+02
6.73046960e+02
1.11355162e+03
1.09429934e+03
1.09368273e+03
1.53173568e+03
9.85497192e+02
1.83177108e+03
1.22746896e+03
8.97158514e+02
1.37690901e+03
7.40890467e+02
9.81064369e+02
7.94930971e+02
1.94336102e+03
1.81692095e+03
1.08315475e+03
9.24135759e+02
1.06875212e+03
1.31744151e+03
1.04588137e+03
1.00202306e+03
0.00000000e+00
1.20288985e+03
1.16444761e+03
1.06811466e+03
1.13453092e+03
1.66042093e+03
1.24806702e+03
9.31524570e+02
5.81225412e+02
5.68839065e+02
7.21898295e+02
0.00000000e+00
0.00000000e+00
0.00000000e+00
0.00000000e+00
8.60305608e+02
1.03964077e+03
1.07615223e+03
8.37527320e+02
9.36341228e+02
1.44181855e+03
0.00000000e+00
1.25446549e+03
2.12213247e+03
9.87829188e+02
1.28198823e+03
1.08956456e+03
1.36509239e+03
1.01558605e+03
6.42809054e+02
1.01534281e+03
6.47147994e+02
1.80228417e+03
9.23526157e+02
2.31969136e+03
7.09984291e+02
7.20419189e+02
7.53503127e+02
7.54281648e+02
9.90765586e+02
1.36003902e+03
2.18569366e+03
1.27945502e+03
0.00000000e+00
0.00000000e+00
0.00000000e+00
8.73224054e+02
7.89312316e+02
7.53855705e+02
0.00000000e+00
0.00000000e+00
0.00000000e+00
0.00000000e+00
6.45880243e+02
0.00000000e+00
7.30903257e+02
6.94036928e+02
8.08361502e+02
1.10336307e+03
0.00000000e+00
0.00000000e+00
0.00000000e+00
1.38148826e+03
1.40390616e+03
0.00000000e+00
0.00000000e+00
4.71333643e+02
0.00000000e+00
1.03098828e+03
0.00000000e+00
4.94078728e+02
9.10140973e+02
0.00000000e+00
8.00315809e+02
6.54811474e+02
1.23911812e+03
1.11760930e+03
8.70607771e+02
1.10583409e+03
0.00000000e+00
8.44352818e+02
8.67014023e+02
5.58328112e+02
0.00000000e+00
0.00000000e+00
0.00000000e+00
1.43198492e+03
1.26654555e+03
1.19454926e+03
1.19806245e+03
9.99452125e+02
9.16770934e+02
8.09826134e+02
2.05176639e+03
0.00000000e+00
1.26136462e+03
1.18442325e+03
7.17455062e+02
9.76994134e+02
1.19166894e+03
1.59523064e+03
2.13559744e+03
1.76924579e+03
1.33084662e+03
9.35195935e+02
8.11753836e+02
6.53714340e+02
1.31497097e+03
1.76060436e+03
2.07350516e+03
1.80446546e+03
1.95134951e+03
2.26248757e+03
9.78342582e+02
1.04254054e+03
1.89352093e+03
6.71211836e+02
1.28793249e+03
1.20074316e+03
1.25191466e+03
1.32525174e+03
2.24260099e+03
1.10924990e+03
9.43815103e+02
8.73618020e+02
1.40520733e+03
9.71684439e+02
6.10346447e+02
1.22188463e+03
1.66540187e+03
5.79037232e+02
1.71557948e+03
1.23017646e+03
1.88393096e+03
1.21399063e+03
1.25325535e+03
8.29942493e+02
8.79285200e+02
1.66803190e+03
1.58656955e+03
9.10359069e+02
1.97213035e+03
1.51398976e+03
1.33589296e+03
1.57982265e+03
1.15556527e+03
1.47946465e+03
0.00000000e+00
0.00000000e+00
1.23822569e+03
4.75516002e+02
8.95515621e+02
1.77453884e+03
1.84816719e+03
1.22606832e+03
1.59626628e+03
1.07007568e+03
1.55197565e+03
1.62512924e+03
1.09851702e+03
1.02594328e+03
1.98209916e+03
1.24002138e+03
9.87112311e+02
1.55018292e+03
1.13790001e+03
2.13843661e+03
1.64308484e+03
0.00000000e+00
0.00000000e+00
1.22975145e+03
6.64885796e+02
1.32435216e+03
1.92947056e+03
1.34797125e+03
1.04561261e+03
1.95938429e+03
8.29007411e+02
2.02709282e+03
7.07973790e+02
1.36145453e+03
6.19839877e+02
5.88231892e+02
2.13572808e+03
1.66774160e+03
1.50744047e+03
9.87244105e+02
1.49365831e+03
1.16495564e+03
8.02147930e+02
0.00000000e+00
1.33357290e+03
1.60422159e+03
1.49888865e+03
9.30044354e+02
1.21858999e+03
1.26600144e+03
1.55283982e+03
5.83489059e+02
2.19671984e+03
8.79250079e+02
1.19816689e+03
1.05260182e+03
1.15293162e+03
1.82734708e+03
1.24191364e+03
1.97957295e+03
2.31946729e+03
1.25805347e+03
1.20424851e+03
8.19598822e+02
0.00000000e+00
0.00000000e+00
2.11565462e+03
1.97986445e+03
1.85391910e+03
1.72544251e+03
5.54751133e+02
5.16828866e+02
1.30838278e+03
1.91544124e+03
2.25808736e+03
1.61707425e+03
1.94013202e+03
2.11737415e+03
2.35350494e+03
1.21197697e+03
2.07907297e+03
2.22507175e+03
1.86035949e+03
0.00000000e+00
0.00000000e+00
0.00000000e+00
6.48782903e+02
8.85536880e+02
1.17429680e+03
1.90916910e+03
1.73439584e+03
2.26005160e+03
1.51133376e+03
1.74565736e+03
1.19062797e+03
2.15320783e+03
1.61811615e+03
1.53137019e+03
8.25276439e+02
1.93597545e+03
8.30747643e+02
1.85319085e+03
1.65561914e+03
1.19009965e+03
8.07469454e+02
8.58892817e+02
0.00000000e+00
0.00000000e+00
1.97601403e+03
9.97259949e+02
1.95732255e+03
2.05640460e+03
2.13106671e+03
3.47268683e+02
8.92361953e+02
1.56704851e+03
9.36276667e+02
7.71498250e+02
1.69555513e+03
1.35797856e+03
1.52482772e+03
1.09999532e+03
1.44785559e+03
1.30018374e+03
1.15008295e+03
0.00000000e+00
0.00000000e+00
5.97616651e+02
0.00000000e+00
1.92117051e+03
9.55532110e+02
1.99265090e+03
9.31374058e+02
1.55573534e+03
1.20588452e+03
2.39382009e+03
2.01072719e+03
1.44551682e+03
2.34664562e+03
1.19288246e+03
2.44314118e+03
1.76492440e+03
9.92015209e+02
1.83426730e+03
1.39679120e+03
1.51149637e+03
0.00000000e+00
0.00000000e+00
0.00000000e+00
6.34087665e+02
2.00543426e+03
1.10311995e+03
1.79345242e+03
4.02569649e+02
1.52984800e+03
1.17004876e+03
2.33314541e+03
4.55641987e+02
1.10806942e+03
1.21852453e+03
1.37388307e+03
5.86325482e+02
1.29549116e+03
1.26299286e+03
1.36949003e+03
1.43017334e+03
2.19777786e+03
6.97268624e+02
0.00000000e+00
0.00000000e+00
0.00000000e+00
1.46211141e+03
1.14328307e+03
1.37049150e+03
6.37787383e+02
1.68214988e+03
2.18404335e+03
0.00000000e+00
2.21534469e+03
1.38359722e+03
2.04903732e+03
1.09987829e+03
2.13633701e+03
7.24542795e+02
2.45013395e+03
1.71992355e+03
1.42420291e+03
1.63536724e+03
0.00000000e+00
7.54597564e+02
0.00000000e+00
7.61400103e+02
1.97911883e+03
1.33229180e+03
1.54650022e+03
1.55597818e+03
1.59890239e+03
1.62679014e+03
1.63120626e+03
2.01318969e+03
8.03620798e+02
2.18484450e+03
2.06248883e+03
2.34968232e+03
1.03116597e+03
1.13555601e+03
2.33553655e+03
1.69812377e+03
1.27348711e+03
5.95226323e+02
0.00000000e+00
0.00000000e+00
1.91456371e+03
2.01680621e+03
1.69310726e+03
2.14525466e+03
2.06574261e+03
1.26282409e+03
6.51115031e+02
2.00913055e+03
1.83767399e+03
1.54278136e+03
2.15627955e+03
5.87701715e+02
9.65832362e+02
2.31250191e+03
2.32820266e+03
1.00150803e+03
1.64766376e+03
1.92639433e+03
1.42763242e+03
0.00000000e+00
0.00000000e+00
1.51485392e+03
2.29106368e+03
1.82877977e+03
1.61387941e+03
1.30564981e+03
2.21799922e+03
1.23374037e+03
2.35969299e+03
1.73511369e+03
8.71586795e+02
1.74835310e+03
1.67023647e+03
1.23634636e+03
1.60014348e+03
1.92989715e+03
1.76339697e+03
1.68241846e+03
1.41208297e+03
1.11317899e+03
0.00000000e+00
9.50610611e+02
2.16114815e+03
4.99256614e+02
2.24068285e+03
1.13347924e+03
1.18730897e+03
1.12061125e+03
1.29682845e+03
1.60060518e+03
2.36775365e+03
5.50676336e+02
1.30061391e+03
8.19346622e+02
1.01281711e+03
1.55634285e+03
8.84780988e+02
2.25599583e+03
2.12998149e+03
1.45040811e+03
1.39566976e+03
0.00000000e+00
1.34051076e+03
1.15050586e+03
1.56475597e+03
1.17655653e+03
9.54815674e+02
2.19498947e+03
2.20639393e+03
1.64957774e+03
1.04304664e+03
5.87196859e+02
8.37431933e+02
7.82052121e+02
8.09810740e+02
9.95901599e+02
1.58214287e+03
2.47984616e+03
2.20277111e+03
1.91516179e+03
1.72986228e+03
1.16012060e+03
8.56418172e+02
1.22058618e+03
1.17889348e+03
2.09208968e+03
1.82571548e+03
1.48200891e+03
1.39092007e+03
1.34410824e+03
2.01709099e+03
1.52275373e+03
1.60248687e+03
9.30119505e+02
2.51212296e+03
1.45961406e+03
1.39793376e+03
1.32480173e+03
2.09446260e+03
2.38023946e+03
2.51347143e+03
1.25600886e+03
1.72174493e+03
0.00000000e+00
1.28311149e+03
1.21915157e+03
1.20603757e+03
1.77872310e+03
2.34619798e+03
1.90636709e+03
1.37821914e+03
4.32821730e+02
0.00000000e+00
5.69630075e+02
4.80433622e+02
0.00000000e+00
5.77748783e+02
0.00000000e+00
1.21491958e+03
9.06668112e+02
1.43906628e+03
1.01732366e+03
2.02162181e+03
1.15545374e+03
1.16438105e+03
1.15900604e+03
0.00000000e+00
8.64917771e+02
9.06768452e+02
0.00000000e+00
6.05657374e+02
0.00000000e+00
0.00000000e+00
0.00000000e+00
0.00000000e+00
0.00000000e+00
0.00000000e+00
0.00000000e+00
0.00000000e+00
0.00000000e+00
9.25534580e+02
0.00000000e+00
0.00000000e+00
1.23408852e+03
1.49287859e+03
1.52877342e+03
0.00000000e+00
6.70946419e+02
0.00000000e+00
1.76763065e+03
1.17715158e+03
1.24547494e+03