# vtk DataFile Version 3.0
MPS 3D Simulation Step 600
ASCII
DATASET UNSTRUCTURED_GRID
POINTS 20213 double
-7.13522457e-04 8.17523434e-04 -7.08035450e-04
-6.39132006e-04 7.89035264e-04 -7.51191989e-04
-5.71244024e-04 7.40826291e-04 -7.61799840e-04
-5.06567352e-04 7.30364249e-04 -8.05766909e-04
-4.42643212e-04 7.05190766e-04 -8.23199814e-04
-3.73262660e-04 6.78994590e-04 -8.31367747e-04
-2.88531405e-04 6.80178314e-04 -8.59996885e-04
-2.07107007e-04 6.66407213e-04 -8.68842635e-04
-1.19258824e-04 6.47700763e-04 -8.64107496e-04
-3.91730604e-05 6.26358290e-04 -8.47145734e-04
1.14566736e-06 6.80753353e-04 -9.01982760e-04
4.19700816e-05 6.27110878e-04 -8.47724259e-04
1.18398077e-04 6.56163363e-04 -8.70297044e-04
2.04414326e-04 6.65965040e-04 -8.64237255e-04
2.89328340e-04 6.82059630e-04 -8.56933246e-04
3.79721784e-04 6.87962957e-04 -8.28082367e-04
4.53390864e-04 7.21115373e-04 -8.21647893e-04
5.06403884e-04 7.00717254e-04 -7.66169802e-04
5.59696658e-04 7.65196810e-04 -7.89863087e-04
6.28324781e-04 7.75105766e-04 -7.45197591e-04
7.08440857e-04 8.11360875e-04 -7.07857000e-04
-7.48196500e-04 8.91412849e-04 -7.44577526e-04
-6.78042438e-04 8.62317834e-04 -7.83675754e-04
-5.92346507e-04 8.23514431e-04 -8.19071803e-04
-5.19759757e-04 7.99056640e-04 -8.49160324e-04
-4.80724623e-04 8.46256175e-04 -9.05364376e-04
-4.34473841e-04 7.69181912e-04 -8.75211543e-04
-3.48835758e-04 7.34328962e-04 -8.87136098e-04
-2.49987293e-04 7.40641093e-04 -9.20370488e-04
-1.70323701e-04 7.16927032e-04 -9.15999525e-04
-8.10278355e-05 7.05871698e-04 -9.15281584e-04
-7.23839400e-06 7.42997341e-04 -9.46695144e-04
7.90764700e-05 7.12288054e-04 -9.18535170e-04
1.72907336e-04 7.19461680e-04 -9.15798200e-04
2.50862440e-04 7.43728812e-04 -9.15744965e-04
3.43575209e-04 7.34653054e-04 -8.84945004e-04
4.22937846e-04 7.69403642e-04 -8.76978532e-04
4.84385255e-04 8.47974732e-04 -8.98792946e-04
5.08601192e-04 7.93575288e-04 -8.49900725e-04
5.86068637e-04 8.36003291e-04 -8.31386084e-04
6.65054959e-04 8.49731404e-04 -7.81467256e-04
7.41643743e-04 8.82512040e-04 -7.43343771e-04
-7.58821349e-04 9.58956424e-04 -7.88887259e-04
-6.84812210e-04 9.42877044e-04 -8.38276024e-04
-6.25190580e-04 8.89059042e-04 -8.49038055e-04
-5.56927258e-04 8.95464717e-04 -8.95386926e-04
-4.95426934e-04 9.20527258e-04 -9.46176420e-04
-3.99795695e-04 8.23968322e-04 -9.28323348e-04
-3.26627928e-04 8.63709713e-04 -9.73550058e-04
-3.22061484e-04 7.90557925e-04 -9.35646326e-04
-2.43130621e-04 8.22209524e-04 -9.68950173e-04
-1.75722280e-04 8.78719806e-04 -1.00486733e-03
-8.64220748e-06 8.73365081e-04 -1.00879749e-03
1.73454125e-04 8.77040614e-04 -1.00171399e-03
2.39724732e-04 8.18394717e-04 -9.65430016e-04
3.22449787e-04 7.92741049e-04 -9.33201326e-04
3.22849086e-04 8.63351830e-04 -9.69921828e-04
4.01854400e-04 8.28196627e-04 -9.26853685e-04
4.91748863e-04 9.21095848e-04 -9.41946352e-04
5.61854217e-04 9.07722930e-04 -8.97378599e-04
6.29758485e-04 8.98441005e-04 -8.52678073e-04
6.93608819e-04 9.30141437e-04 -8.25256486e-04
7.66616300e-04 9.51728766e-04 -7.82874897e-04
-8.19980704e-04 1.01734481e-03 -7.74778482e-04
-7.37533248e-04 1.01517452e-03 -8.45680369e-04
-6.12592267e-04 9.60192988e-04 -8.99330202e-04
-5.33190106e-04 9.91169906e-04 -9.61264770e-04
-4.49289741e-04 9.71679427e-04 -9.87988589e-04
-4.10241154e-04 8.96379264e-04 -9.66283891e-04
-3.52681811e-04 9.48042641e-04 -1.00557953e-03
-2.61746195e-04 9.05311208e-04 -1.00510225e-03
-2.02435656e-04 9.64682444e-04 -1.03768006e-03
-1.17110588e-04 9.37043847e-04 -1.03161853e-03
3.93847098e-06 9.43977393e-04 -1.04073434e-03
1.16716556e-04 9.35282137e-04 -1.02990390e-03
2.01108927e-04 9.67065486e-04 -1.03449838e-03
2.57025880e-04 9.04076946e-04 -1.00278473e-03
3.51444549e-04 9.47239081e-04 -1.00188807e-03
4.11284059e-04 8.98222311e-04 -9.62590434e-04
4.48311475e-04 9.74313858e-04 -9.84766980e-04
5.31102049e-04 9.94875504e-04 -9.60019127e-04
6.22805977e-04 9.66395536e-04 -8.96481411e-04
7.32339434e-04 1.00958020e-03 -8.45865035e-04
8.13219509e-04 1.01243846e-03 -7.86851786e-04
-8.03342966e-04 1.07535661e-03 -8.24632501e-04
-6.75738456e-04 1.03583359e-03 -8.97504075e-04
-6.04787180e-04 1.02694915e-03 -9.42908482e-04
-5.53405370e-04 1.07543590e-03 -9.86204637e-04
-4.67403715e-04 1.05813252e-03 -1.01060681e-03
-3.91047720e-04 1.01713284e-03 -1.02329478e-03
-2.88338554e-04 9.88258738e-04 -1.03473115e-03
-2.32696153e-04 1.04426798e-03 -1.06183196e-03
-1.46220680e-04 1.02229560e-03 -1.06547202e-03
-6.02651790e-05 9.92185917e-04 -1.06087643e-03
-2.85110177e-06 1.04486847e-03 -1.08295268e-03
6.13848209e-05 9.96977689e-04 -1.06340632e-03
1.47068916e-04 1.02280198e-03 -1.06529329e-03
2.33855416e-04 1.04891115e-03 -1.06024474e-03
2.86795283e-04 9.86118571e-04 -1.03194646e-03
3.88935893e-04 1.01974913e-03 -1.02063851e-03
4.66342060e-04 1.05931210e-03 -1.00941209e-03
5.52860923e-04 1.07558456e-03 -9.86274280e-04
6.05417534e-04 1.02973468e-03 -9.44254529e-04
6.79301626e-04 1.04176654e-03 -9.00685372e-04
8.15696426e-04 1.07465192e-03 -8.24243971e-04
-8.42961310e-04 1.15270078e-03 -8.24688309e-04
-7.44488820e-04 1.09517523e-03 -8.80687199e-04
-6.98895965e-04 1.14010526e-03 -9.30030773e-04
-6.30237976e-04 1.10656453e-03 -9.58384431e-04
-5.11941139e-04 1.13591766e-03 -1.02056800e-03
-3.53579224e-04 1.16697714e-03 -1.06598889e-03
-3.29249763e-04 1.06691605e-03 -1.05051721e-03
-2.71986796e-04 1.12408001e-03 -1.07267852e-03
-1.72092562e-04 1.10951845e-03 -1.08517673e-03
-8.44213578e-05 1.07615369e-03 -1.08755353e-03
1.88686501e-06 1.12599662e-03 -1.10557944e-03
8.38570313e-05 1.07898559e-03 -1.08818295e-03
1.72373761e-04 1.11268061e-03 -1.08460486e-03
2.75975631e-04 1.12409667e-03 -1.07071358e-03
3.26910095e-04 1.06556790e-03 -1.04786250e-03
3.53760638e-04 1.16842809e-03 -1.06651198e-03
5.08157552e-04 1.13556098e-03 -1.02222786e-03
6.34063359e-04 1.11069212e-03 -9.60760811e-04
7.04664043e-04 1.12700040e-03 -9.25115125e-04
7.56966222e-04 1.09312722e-03 -8.75680125e-04
8.37716682e-04 1.14608251e-03 -8.35867471e-04
-8.39073694e-04 1.24821191e-03 -8.63738762e-04
-7.90883921e-04 1.17288182e-03 -8.78719752e-04
-6.62529996e-04 1.20036007e-03 -9.70621594e-04
-5.83941157e-04 1.17160982e-03 -9.99484317e-04
-5.35081084e-04 1.23201364e-03 -1.03339856e-03
-4.56491645e-04 1.19330969e-03 -1.04968332e-03
-2.98480023e-04 1.22466912e-03 -1.08935548e-03
-2.23933015e-04 1.18786828e-03 -1.09668956e-03
-1.45181062e-04 1.19015248e-03 -1.10816125e-03
-7.40801578e-05 1.15851287e-03 -1.10861968e-03
1.77896088e-06 1.21096350e-03 -1.11819975e-03
7.88842770e-05 1.16021256e-03 -1.10849584e-03
1.48198934e-04 1.19384528e-03 -1.10695131e-03
2.26304861e-04 1.18573411e-03 -1.09412102e-03
2.98596728e-04 1.22655116e-03 -1.08842896e-03
4.57967147e-04 1.19553195e-03 -1.05023491e-03
5.38581563e-04 1.23386671e-03 -1.03338698e-03
5.79372619e-04 1.16940666e-03 -1.00323162e-03
6.59989405e-04 1.19726199e-03 -9.72479347e-04
7.87551687e-04 1.18100569e-03 -8.88595740e-04
8.49063862e-04 1.23445395e-03 -8.54182298e-04
-8.68055608e-04 1.32519905e-03 -8.52115528e-04
-7.83962083e-04 1.28420151e-03 -9.16456559e-04
-7.42540935e-04 1.21441085e-03 -9.27129375e-04
-6.15714123e-04 1.26289411e-03 -1.00516332e-03
-4.75954223e-04 1.28843273e-03 -1.06206686e-03
-3.97181951e-04 1.24835676e-03 -1.07190343e-03
-3.36621873e-04 1.29841963e-03 -1.09591627e-03
-2.38916108e-04 1.28324895e-03 -1.10710485e-03
-1.57832022e-04 1.28053361e-03 -1.11703372e-03
-7.72630003e-05 1.25097083e-03 -1.12149213e-03
-7.67812985e-07 1.29765952e-03 -1.12411431e-03
7.82455776e-05 1.25414661e-03 -1.12040128e-03
1.58425319e-04 1.28155994e-03 -1.11518076e-03
2.39299153e-04 1.28376814e-03 -1.10464628e-03
3.37589270e-04 1.29963297e-03 -1.09480804e-03
3.98214530e-04 1.24862774e-03 -1.07014841e-03
4.76398307e-04 1.29027916e-03 -1.06211736e-03
6.23823086e-04 1.26417539e-03 -1.00070903e-03
7.31709521e-04 1.21156607e-03 -9.36969056e-04
7.95761253e-04 1.27511079e-03 -9.09245827e-04
8.71051091e-04 1.31153025e-03 -8.55063328e-04
-8.62825074e-04 1.41380708e-03 -8.73166676e-04
-8.07582521e-04 1.35969681e-03 -9.12546348e-04
-7.00614336e-04 1.28069709e-03 -9.67385680e-04
-5.56093864e-04 1.32056866e-03 -1.04105037e-03
-4.99903179e-04 1.37358970e-03 -1.06742092e-03
-4.13248631e-04 1.35096103e-03 -1.08600662e-03
-3.30662635e-04 1.37676778e-03 -1.10880821e-03
-2.42243826e-04 1.36477217e-03 -1.11707389e-03
-1.57031299e-04 1.36596921e-03 -1.12590005e-03
-7.76053043e-05 1.34150561e-03 -1.12889398e-03
-2.10615294e-06 1.38765171e-03 -1.12973822e-03
7.31366830e-05 1.34347906e-03 -1.12827733e-03
1.55699254e-04 1.36608612e-03 -1.12476495e-03
2.41545596e-04 1.36524828e-03 -1.11480793e-03
3.29812782e-04 1.37857169e-03 -1.10636934e-03
4.13823978e-04 1.35222017e-03 -1.08572436e-03
5.00502278e-04 1.37514516e-03 -1.06464400e-03
5.58194163e-04 1.31801015e-03 -1.04103777e-03
7.05928411e-04 1.28715394e-03 -9.65105766e-04
7.94530020e-04 1.34907949e-03 -9.22122386e-04
8.60129044e-04 1.39111272e-03 -8.76124160e-04
-9.04346554e-04 1.47439984e-03 -8.30466739e-04
-8.06128218e-04 1.44876808e-03 -9.22364049e-04
-6.43821184e-04 1.34732599e-03 -1.00663658e-03
-5.84376291e-04 1.40652194e-03 -1.03617687e-03
-5.26780669e-04 1.46212568e-03 -1.06538084e-03
-4.47181185e-04 1.44021215e-03 -1.08876798e-03
-3.64582380e-04 1.44604358e-03 -1.10903988e-03
-2.70229126e-04 1.44609937e-03 -1.12061125e-03
-1.79621962e-04 1.44767074e-03 -1.12843930e-03
-9.34118248e-05 1.42873651e-03 -1.12967530e-03
7.74148489e-07 1.46511538e-03 -1.13332444e-03
9.24990382e-05 1.42946400e-03 -1.12931846e-03
1.81482554e-04 1.44656820e-03 -1.12655774e-03
2.71246811e-04 1.44619321e-03 -1.11915880e-03
3.66327940e-04 1.44705590e-03 -1.10713759e-03
4.48470889e-04 1.44044019e-03 -1.08629200e-03
5.25580313e-04 1.46470332e-03 -1.06482104e-03
5.83294481e-04 1.40856693e-03 -1.03413402e-03
6.39668979e-04 1.34985578e-03 -1.00773054e-03
8.12584072e-04 1.44484626e-03 -9.18795414e-04
8.97012583e-04 1.47038715e-03 -8.45964535e-04
-8.54084039e-04 1.51996173e-03 -8.84446014e-04
-7.80965488e-04 1.51977391e-03 -9.44644057e-04
[...]
POINT_DATA 20213
SCALARS pressure double 1
LOOKUP_TABLE default
0.00000000e+00
0.00000000e+00
0.00000000e+00
0.00000000e+00
0.00000000e+00
0.00000000e+00
0.00000000e+00
0.00000000e+00
0.00000000e+00
0.00000000e+00
0.00000000e+00
0.00000000e+00
0.00000000e+00
0.00000000e+00
6.94490882e+02
9.22854534e+02
1.07552507e+03
0.00000000e+00
1.00576411e+03
0.00000000e+00
0.00000000e+00
0.00000000e+00
6.14958583e+02
5.10279035e+02
5.32209030e+02
0.00000000e+00
6.07646152e+02
0.00000000e+00
0.00000000e+00
0.00000000e+00
0.00000000e+00
0.00000000e+00
0.00000000e+00
0.00000000e+00
0.00000000e+00
8.84126484e+02
9.37838454e+02
0.00000000e+00
0.00000000e+00
0.00000000e+00
8.73752675e+02
8.31531729e+02
4.94217134e+02
0.00000000e+00
0.00000000e+00
0.00000000e+00
0.00000000e+00
6.64629788e+02
0.00000000e+00
0.00000000e+00
0.00000000e+00
0.00000000e+00
6.98835778e+02
7.55482378e+02
0.00000000e+00
0.00000000e+00
0.00000000e+00
0.00000000e+00
0.00000000e+00
0.00000000e+00
8.80270232e+02
0.00000000e+00
0.00000000e+00
0.00000000e+00
0.00000000e+00
0.00000000e+00
0.00000000e+00
6.37544906e+02
6.21936231e+02
0.00000000e+00
7.50704707e+02
8.29839956e+02
7.41965803e+02
0.00000000e+00
0.00000000e+00
0.00000000e+00
0.00000000e+00
0.00000000e+00
0.00000000e+00
6.89065300e+02
8.06521423e+02
8.20369445e+02
8.54123730e+02
0.00000000e+00
0.00000000e+00
0.00000000e+00
0.00000000e+00
7.47092593e+02
0.00000000e+00
0.00000000e+00
0.00000000e+00
0.00000000e+00
1.09959690e+03
9.48316099e+02
0.00000000e+00
0.00000000e+00
0.00000000e+00
0.00000000e+00
0.00000000e+00
0.00000000e+00
0.00000000e+00
0.00000000e+00
0.00000000e+00
8.82956166e+02
0.00000000e+00
0.00000000e+00
0.00000000e+00
6.77111248e+02
0.00000000e+00
1.03234497e+03
1.18630504e+03
0.00000000e+00
1.07255994e+03
1.12819271e+03
1.00468110e+03
0.00000000e+00
0.00000000e+00
0.00000000e+00
6.89469163e+02
0.00000000e+00
0.00000000e+00
0.00000000e+00
0.00000000e+00
0.00000000e+00
9.71487181e+02
0.00000000e+00
0.00000000e+00
0.00000000e+00
8.35679768e+02
1.01293081e+03
9.85745581e+02
1.20247890e+03
1.41511133e+03
1.34012750e+03
1.22561684e+03
1.07959007e+03
8.72395878e+02
0.00000000e+00
7.21194848e+02
8.24410032e+02
0.00000000e+00
0.00000000e+00
0.00000000e+00
0.00000000e+00
0.00000000e+00
8.87057415e+02
9.31609010e+02
0.00000000e+00
0.00000000e+00
6.68484845e+02
0.00000000e+00
0.00000000e+00
1.23525025e+03
1.32381871e+03
1.33732164e+03
1.27081774e+03
1.05665659e+03
8.54895908e+02
0.00000000e+00
7.58769215e+02
9.49942633e+02
0.00000000e+00
0.00000000e+00
0.00000000e+00
0.00000000e+00
0.00000000e+00
9.93345546e+02
0.00000000e+00
0.00000000e+00
0.00000000e+00
8.26237649e+02
0.00000000e+00
1.14746927e+03
1.19274268e+03
1.20547290e+03
1.15795446e+03
1.05206097e+03
0.00000000e+00
0.00000000e+00
0.00000000e+00
0.00000000e+00
9.13604244e+02
1.04152482e+03
0.00000000e+00
1.11633356e+03
0.00000000e+00
9.81578083e+02
9.00544953e+02
0.00000000e+00
0.00000000e+00
0.00000000e+00
9.46366380e+02
9.01647646e+02
9.73415220e+02
0.00000000e+00
1.02394916e+03
1.07311111e+03
0.00000000e+00
0.00000000e+00
0.00000000e+00
0.00000000e+00
0.00000000e+00
8.34404177e+02
1.00111188e+03
1.18713999e+03
1.27023012e+03
1.14708697e+03
0.00000000e+00
0.00000000e+00
7.36592612e+02
0.00000000e+00
0.00000000e+00
7.16976991e+02
8.60281717e+02
0.00000000e+00
8.74039742e+02
0.00000000e+00
6.95974663e+02
0.00000000e+00
0.00000000e+00
6.91887549e+02
0.00000000e+00
0.00000000e+00
6.67526845e+02
0.00000000e+00
1.13287139e+03
0.00000000e+00
1.26856145e+03
9.78840304e+02
0.00000000e+00
0.00000000e+00
0.00000000e+00
0.00000000e+00
0.00000000e+00
6.00285462e+02
0.00000000e+00
0.00000000e+00
0.00000000e+00
0.00000000e+00
5.43923518e+02
0.00000000e+00
0.00000000e+00
0.00000000e+00
0.00000000e+00
8.77167147e+02
0.00000000e+00
1.22595511e+03
1.25165503e+03
1.33800100e+03
1.23664928e+03
0.00000000e+00
0.00000000e+00
0.00000000e+00
0.00000000e+00
5.66383089e+02
0.00000000e+00
0.00000000e+00
0.00000000e+00
0.00000000e+00
0.00000000e+00
0.00000000e+00
0.00000000e+00
0.00000000e+00
0.00000000e+00
6.96783526e+02
0.00000000e+00
1.13714414e+03
1.32773671e+03
1.34066989e+03
1.26469559e+03
0.00000000e+00
0.00000000e+00
0.00000000e+00
8.34736354e+02
0.00000000e+00
0.00000000e+00
0.00000000e+00
0.00000000e+00
5.85112218e+02
0.00000000e+00
0.00000000e+00
7.32452115e+02
7.21045662e+02
5.19741910e+02
0.00000000e+00
0.00000000e+00
1.00245480e+03
1.25244163e+03
1.28801687e+03
0.00000000e+00
1.27192111e+03
1.14844358e+03
0.00000000e+00
0.00000000e+00
8.76825282e+02
0.00000000e+00
0.00000000e+00
0.00000000e+00
6.40640402e+02
7.79580169e+02
0.00000000e+00
0.00000000e+00
0.00000000e+00
8.09070108e+02
7.87638855e+02
1.03083901e+03
0.00000000e+00
0.00000000e+00
1.23627198e+03
1.33834774e+03
1.40084262e+03
1.45272301e+03
1.36903212e+03
0.00000000e+00
0.00000000e+00
0.00000000e+00
0.00000000e+00
0.00000000e+00
0.00000000e+00
7.89037545e+02
0.00000000e+00
7.20826551e+02
0.00000000e+00
0.00000000e+00
0.00000000e+00
9.82215517e+02
1.12624264e+03
1.19282122e+03
1.26287791e+03
1.30741214e+03
1.36157982e+03
0.00000000e+00
1.25425717e+03
1.30760194e+03
1.13405938e+03
9.84929062e+02
9.15844670e+02
0.00000000e+00
0.00000000e+00
0.00000000e+00
6.86359298e+02
0.00000000e+00
0.00000000e+00
0.00000000e+00
0.00000000e+00
7.59858779e+02
9.56534943e+02
0.00000000e+00
1.30136469e+03
1.33885888e+03
0.00000000e+00
1.24070093e+03
1.24151372e+03
1.35081726e+03
1.02686899e+03
0.00000000e+00
1.13625184e+03
9.59071829e+02
8.04919329e+02
0.00000000e+00
0.00000000e+00
0.00000000e+00
0.00000000e+00
0.00000000e+00
0.00000000e+00
0.00000000e+00
0.00000000e+00
0.00000000e+00
9.92813508e+02
1.20171096e+03
9.60781297e+02
1.05959832e+03
0.00000000e+00
1.18333130e+03
0.00000000e+00
0.00000000e+00
1.06427051e+03
1.24916263e+03
9.23813731e+02
9.56571503e+02
0.00000000e+00
7.59001315e+02
0.00000000e+00
0.00000000e+00
0.00000000e+00
0.00000000e+00
0.00000000e+00
0.00000000e+00
8.21892859e+02
0.00000000e+00
9.58257989e+02
0.00000000e+00
0.00000000e+00
0.00000000e+00
8.36771653e+02
0.00000000e+00
0.00000000e+00
0.00000000e+00
1.16467553e+03
0.00000000e+00
0.00000000e+00
8.95536288e+02
8.91292256e+02
0.00000000e+00
9.02421628e+02
7.41031563e+02
0.00000000e+00
0.00000000e+00
0.00000000e+00
8.50581217e+02
1.00188438e+03
8.18241702e+02
0.00000000e+00
0.00000000e+00
0.00000000e+00
0.00000000e+00
0.00000000e+00
0.00000000e+00
0.00000000e+00
0.00000000e+00
0.00000000e+00
0.00000000e+00
0.00000000e+00
8.97679645e+02
8.59687803e+02
8.93158670e+02
0.00000000e+00
0.00000000e+00
0.00000000e+00
0.00000000e+00
6.86999087e+02
8.56043053e+02
0.00000000e+00
0.00000000e+00
0.00000000e+00
0.00000000e+00
0.00000000e+00
0.00000000e+00
6.30344125e+02
0.00000000e+00
0.00000000e+00
0.00000000e+00
0.00000000e+00
0.00000000e+00
0.00000000e+00
0.00000000e+00
0.00000000e+00
0.00000000e+00
0.00000000e+00
0.00000000e+00
0.00000000e+00
0.00000000e+00
0.00000000e+00
0.00000000e+00
0.00000000e+00
8.45273187e+02
0.00000000e+00
0.00000000e+00
8.51497557e+02
1.00911120e+03
0.00000000e+00
0.00000000e+00
0.00000000e+00
9.94090075e+02
7.17922660e+02
6.67492589e+02
6.00788189e+02
5.54308662e+02
4.89626907e+02
4.94232816e+02
8.19531584e+02
5.36835345e+02
8.45199750e+02
5.89697858e+02
9.18846819e+02
6.88428083e+02
8.75225220e+02
1.03465569e+03
1.05446002e+03
1.06386447e+03
1.03674986e+03
1.25488620e+03
8.60253546e+02
6.31330863e+02
7.58116188e+02
6.94738109e+02
6.80460665e+02
8.78518164e+02
6.90486742e+02
7.06147942e+02
0.00000000e+00
0.00000000e+00
0.00000000e+00
0.00000000e+00
8.00170434e+02
0.00000000e+00
5.81762581e+02
9.01209245e+02
9.57452361e+02
1.15945623e+03
1.01366469e+03
1.00949450e+03
1.01530876e+03
0.00000000e+00
0.00000000e+00
6.68012491e+02
6.91455156e+02
9.53713049e+02
7.04003167e+02
7.80475745e+02
8.00836354e+02
7.93436739e+02
9.03711471e+02
7.50226854e+02
1.10478681e+03
8.35708770e+02
9.68332779e+02
8.18212460e+02
7.87004155e+02
8.18637442e+02
9.15851743e+02
1.14862686e+03
1.01234130e+03
9.81602613e+02
0.00000000e+00
6.35083948e+02
6.65553783e+02
9.27992685e+02
7.79703577e+02
1.13090706e+03
8.72337001e+02
1.03727586e+03
9.73313273e+02
9.68371063e+02
1.01955002e+03
8.63900557e+02
8.14649845e+02
9.88938755e+02
8.60162546e+02
1.04339441e+03
8.64866183e+02
1.14003563e+03
9.97571248e+02
1.20901843e+03
9.45669779e+02
0.00000000e+00
0.00000000e+00
6.01599994e+02
6.89949712e+02
8.91466695e+02
1.02205553e+03
0.00000000e+00
8.91595879e+02
1.01946320e+03
1.13527843e+03
1.11221142e+03
9.20697735e+02
8.54836698e+02
7.98149696e+02
8.09546818e+02
7.75680966e+02
0.00000000e+00
9.89892625e+02
1.02442675e+03
1.06807713e+03
1.01889810e+03
7.30327311e+02
0.00000000e+00
5.78610780e+02
7.54960196e+02
9.52135410e+02
1.17838926e+03
1.11066686e+03
1.33664244e+03
1.31901850e+03
1.25992029e+03
1.14932178e+03
9.92974694e+02
8.85046059e+02
9.56198096e+02
9.46832362e+02
1.00274986e+03
1.00916106e+03
1.27227912e+03
1.10496936e+03
1.10776898e+03
1.06539329e+03
0.00000000e+00
0.00000000e+00
5.74625462e+02
0.00000000e+00
9.78986463e+02
1.11958228e+03
1.22710002e+03
1.32073188e+03
1.19171180e+03
1.27135916e+03
9.56942555e+02
1.02446072e+03
7.93024047e+02
1.05753995e+03
9.15485132e+02
1.07121911e+03
9.91904373e+02
1.09306526e+03
1.09628233e+03
9.18775058e+02
1.01849918e+03
0.00000000e+00
0.00000000e+00
8.65169052e+02
6.81631787e+02
9.96481508e+02
1.04670214e+03
1.21678586e+03
1.34566069e+03
1.29049330e+03
1.32759370e+03
1.23412599e+03
1.20069289e+03
1.06450752e+03
1.21810028e+03
1.24174256e+03
1.12962687e+03
1.14968226e+03
1.27047327e+03
1.22989000e+03
0.00000000e+00
1.21120914e+03
8.88592557e+02
0.00000000e+00
5.80501629e+02
0.00000000e+00
8.13558332e+02
1.10090043e+03
1.13405323e+03
1.12885658e+03
9.37699318e+02
1.23136962e+03
7.57550661e+02
9.23017079e+02
6.87127179e+02
1.11512588e+03
8.05110529e+02
1.00663888e+03
1.18788709e+03
1.28432333e+03
1.00769606e+03
9.57356496e+02
8.76577520e+02
8.78030645e+02
0.00000000e+00
9.33265649e+02
0.00000000e+00
1.11806454e+03
8.97015311e+02
9.57870589e+02
9.76315360e+02
9.98714794e+02
1.17448531e+03
9.04322436e+02
9.33899898e+02
9.17478447e+02
1.23928137e+03
1.04767405e+03
1.11421135e+03
1.30355767e+03
1.25984196e+03
1.31142516e+03
0.00000000e+00
1.06304001e+03
0.00000000e+00
7.89678696e+02
7.13228067e+02
0.00000000e+00
7.94208318e+02
8.61670672e+02
8.18593966e+02
7.74362915e+02
7.51082229e+02
9.79639323e+02
6.79372528e+02
8.70552084e+02
6.95343072e+02
1.15875952e+03
8.20306741e+02
1.03331258e+03
1.26049532e+03
1.39071332e+03
1.01658240e+03
1.06308755e+03
7.22491514e+02
0.00000000e+00
9.88410061e+02
1.05472931e+03
0.00000000e+00
9.81033885e+02
9.97572759e+02
7.67967641e+02
7.99205212e+02
9.92286272e+02
1.09231522e+03
9.58386197e+02
1.11899269e+03
1.08721157e+03
1.33618994e+03
1.33371153e+03
1.39906840e+03
1.40098660e+03
1.33081961e+03
1.18344580e+03
0.00000000e+00
1.02597030e+03
0.00000000e+00
1.05122900e+03
9.15247626e+02
0.00000000e+00
7.38757448e+02
8.63811314e+02
8.16834548e+02
7.16230761e+02
7.59037440e+02
9.75705700e+02
7.24271257e+02
9.18495424e+02
7.49849361e+02
1.19603293e+03
9.20292269e+02
1.20071503e+03
1.45368732e+03
1.42179405e+03
1.22046371e+03
0.00000000e+00
7.20367642e+02
0.00000000e+00
1.06599606e+03
1.04080904e+03
8.64575204e+02
7.71760027e+02
1.02499922e+03
8.05936953e+02
7.78891578e+02
7.57576180e+02
8.26036225e+02
8.12390359e+02
9.48108342e+02
9.06968565e+02
1.30625313e+03
1.09573756e+03
1.35977090e+03
1.43802018e+03
1.44951885e+03
1.24555241e+03
1.21806842e+03
9.33158586e+02
0.00000000e+00
1.01184495e+03
1.05337230e+03
8.80203290e+02
7.58160149e+02
8.12636033e+02
8.51498775e+02
6.74493479e+02
7.29854925e+02
7.22941777e+02
8.69388566e+02
1.02241502e+03
1.12032526e+03
1.28712429e+03
1.35515239e+03
1.21752863e+03
1.34351868e+03
1.41585858e+03
1.37679727e+03
1.26549584e+03
1.19885554e+03
0.00000000e+00
1.10298459e+03
1.03646522e+03
1.11061305e+03
8.18854304e+02
1.00467534e+03
7.97435321e+02
9.74605994e+02
7.22370642e+02
9.19075520e+02
8.21892181e+02
9.31959312e+02
1.15737393e+03
1.18457288e+03
1.27288203e+03
1.28428313e+03
1.27531028e+03
1.43451130e+03
1.19309103e+03
1.31226334e+03
1.27325504e+03
1.24329286e+03
1.02536512e+03
1.04073872e+03
9.79820524e+02
1.01753967e+03
8.39274096e+02
7.65590979e+02
7.13172050e+02
6.68585449e+02
9.46921417e+02
8.52292471e+02
1.09650582e+03
1.02641670e+03
1.19880650e+03
1.10934540e+03
1.06245418e+03
1.00288216e+03
9.88102654e+02
1.19834153e+03
1.03104280e+03
1.07123535e+03
1.24176999e+03
9.07796459e+02
9.54142838e+02
9.51474311e+02
9.24354831e+02
1.12292364e+03
9.52620115e+02
8.47539053e+02
0.00000000e+00
7.79078499e+02
0.00000000e+00
8.64042687e+02
0.00000000e+00
0.00000000e+00
1.00460710e+03
8.38317008e+02
7.96516617e+02
1.00820109e+03
8.72903080e+02
7.86781296e+02
9.20029012e+02
1.11505015e+03
8.43697021e+02
1.13262442e+03
9.15907592e+02
9.75435922e+02
1.03532304e+03
9.57742273e+02
7.89876945e+02
7.05729074e+02
9.96245658e+02
8.46611976e+02
1.04181788e+03
9.27887151e+02
1.05008780e+03
8.72849563e+02
7.79087768e+02
6.88013666e+02
7.15691930e+02
7.08711857e+02
7.04533456e+02
1.05403841e+03
8.97136108e+02
0.00000000e+00
6.87912577e+02
8.31602786e+02
8.54003068e+02
7.56643309e+02
9.22768653e+02
0.00000000e+00
0.00000000e+00
0.00000000e+00
0.00000000e+00
0.00000000e+00
0.00000000e+00
0.00000000e+00
0.00000000e+00
0.00000000e+00
0.00000000e+00
0.00000000e+00
4.87236991e+02
0.00000000e+00
0.00000000e+00
6.53595881e+02
0.00000000e+00
4.37940401e+02
0.00000000e+00
0.00000000e+00
5.40229061e+02
0.00000000e+00
0.00000000e+00
0.00000000e+00
0.00000000e+00
0.00000000e+00
6.35320664e+02
0.00000000e+00
0.00000000e+00
0.00000000e+00
0.00000000e+00
7.79165636e+02
0.00000000e+00
9.55699958e+02
9.50763322e+02
8.42110482e+02
9.65865732e+02
5.26887531e+02
7.08808290e+02
6.50434882e+02
5.99497300e+02
8.01013160e+02
5.43719051e+02
4.65677542e+02
0.00000000e+00
0.00000000e+00
5.75470544e+02
0.00000000e+00
0.00000000e+00
0.00000000e+00
0.00000000e+00
9.63123237e+02
1.03209212e+03
1.20050805e+03
1.07753167e+03
1.05871400e+03
1.03176693e+03
1.04771676e+03
0.00000000e+00
7.49947731e+02
1.22301055e+03
9.06128815e+02
1.20803166e+03
8.53572234e+02
8.44428873e+02
8.28228721e+02
1.23085124e+03
1.21824241e+03
1.14151138e+03
1.17256209e+03
1.27420570e+03
9.97676079e+02
1.09019552e+03
1.23154520e+03
1.34019687e+03
1.21463586e+03
1.37729249e+03
1.06898604e+03
0.00000000e+00
0.00000000e+00
7.77899013e+02
9.52300397e+02
9.85474593e+02
1.15764880e+03
9.72232297e+02
9.52787348e+02
1.11869837e+03
6.21309680e+02
5.97942423e+02
6.82141027e+02
7.07437908e+02
8.45829352e+02
1.09983323e+03
1.14979228e+03
1.09419513e+03
1.26088079e+03
1.24780504e+03
1.20310700e+03
9.99745576e+02
9.23561264e+02
6.63410750e+02
9.65388336e+02
1.22807783e+03
1.19151762e+03
1.37954944e+03
1.51340075e+03
1.33847284e+03
1.10715628e+03
1.12555759e+03
9.10031630e+02
1.34954248e+03
1.06271319e+03
1.22052229e+03
1.14898932e+03
1.29195357e+03
1.41559277e+03
1.36969878e+03
1.30554826e+03
1.36785100e+03
1.18262267e+03
0.00000000e+00
0.00000000e+00
7.40021517e+02
9.33006704e+02
1.03886691e+03
1.52342453e+03
1.18440384e+03
1.12916413e+03
1.22304731e+03
1.37829960e+03
1.23440519e+03
1.57749809e+03
1.23627515e+03
1.30501807e+03
1.11991064e+03
1.08549079e+03
1.23574822e+03
1.42463095e+03
1.20961405e+03
1.24821009e+03
9.92053302e+02
0.00000000e+00
6.18053693e+02
6.77239265e+02
9.03366399e+02
1.03320135e+03
1.45813626e+03
1.27387557e+03
8.32078768e+02
1.02169967e+03
1.34527997e+03
1.20634775e+03
1.09274684e+03
1.06924708e+03
1.26586067e+03
8.77145510e+02
9.56404878e+02
1.23522198e+03
1.43215023e+03
1.28625884e+03
1.26136111e+03
9.89730025e+02
0.00000000e+00
0.00000000e+00
0.00000000e+00
9.30929137e+02
1.16087637e+03
1.21958211e+03
1.33212661e+03
1.13326168e+03
1.35441055e+03
1.37035740e+03
1.32888112e+03
1.14718442e+03
1.27320597e+03
1.19680552e+03
1.11497853e+03
9.16614861e+02
1.30780812e+03
1.32450154e+03
1.33252501e+03
1.25508087e+03
8.41821190e+02
0.00000000e+00
0.00000000e+00
0.00000000e+00
1.27190953e+03
7.30070346e+02
1.24126143e+03
1.44433921e+03
1.36045955e+03
1.38550182e+03
1.51097034e+03
1.32572572e+03
1.42498134e+03
1.28110679e+03
1.42419584e+03
1.28013731e+03
1.39511970e+03
1.49792094e+03
1.38125645e+03
1.10169684e+03
1.39658478e+03
9.02223496e+02
0.00000000e+00
0.00000000e+00
5.35654349e+02
1.28178886e+03
6.89577445e+02
9.83802869e+02
1.30121644e+03
1.27329830e+03
1.32416416e+03
1.29438167e+03
1.10141816e+03
1.16943291e+03
1.02718075e+03
1.29262008e+03
1.32471565e+03
1.36685960e+03
1.42610856e+03
1.21787570e+03
9.65461043e+02
1.43111374e+03
1.00868383e+03
0.00000000e+00
7.92087266e+02
0.00000000e+00
1.20058236e+03
7.40999768e+02
1.41494617e+03
1.72929800e+03
1.12656131e+03
1.16801936e+03
1.37640185e+03
1.13182995e+03
1.23534266e+03
1.18153399e+03
1.49764092e+03
1.34323861e+03
1.41361975e+03
1.73509450e+03
1.48483632e+03
8.39176329e+02
1.38829904e+03
0.00000000e+00
9.11363436e+02
0.00000000e+00
0.00000000e+00
1.29448150e+03
7.64348005e+02
1.13156358e+03
1.25725954e+03
1.05519032e+03
1.22007327e+03
1.20653207e+03
9.70307306e+02
1.14726394e+03
1.02264072e+03
1.32489283e+03
1.43104960e+03
1.45452247e+03
1.46473864e+03
1.19354418e+03
7.96722222e+02
1.41190807e+03
0.00000000e+00
0.00000000e+00
0.00000000e+00
0.00000000e+00
1.28582493e+03
8.45939265e+02
1.26221761e+03
1.42078573e+03
1.21764192e+03
1.03661783e+03
1.33032803e+03
1.17727855e+03
1.37586658e+03
1.29568043e+03
1.62990191e+03
1.45054715e+03
1.53751265e+03
1.47297277e+03
1.44861854e+03
9.87264263e+02
1.41722279e+03
0.00000000e+00
0.00000000e+00
0.00000000e+00
0.00000000e+00
1.17710948e+03
1.12155242e+03
1.15363708e+03
1.05884867e+03
8.87848321e+02
8.97842971e+02
1.06521207e+03
1.16534907e+03
1.12649551e+03
1.30708629e+03
1.37680233e+03
1.25324070e+03
1.43280739e+03
1.53665226e+03
1.46756888e+03
1.36354751e+03
1.12525587e+03
0.00000000e+00
9.43973085e+02
0.00000000e+00
1.13805966e+03
1.21818504e+03
1.09436457e+03
1.39506657e+03
1.04557464e+03
8.01435435e+02
8.40976191e+02
1.19279311e+03
9.97455270e+02
1.10530101e+03
1.29547963e+03
1.40258928e+03
1.40233765e+03
1.27099904e+03
1.51743174e+03
1.66709324e+03
1.42271356e+03
1.24147330e+03
1.12734644e+03
1.11370785e+03
0.00000000e+00
1.12464737e+03
1.23850050e+03
9.93002574e+02
1.45751166e+03
1.15231424e+03
1.00479458e+03
1.01825847e+03
1.20678733e+03
1.15480284e+03
1.34417453e+03
1.27085605e+03
1.26946607e+03
1.40332483e+03
1.42720296e+03
1.40022429e+03
1.51237505e+03
1.39647910e+03
1.40091953e+03
1.28259600e+03
0.00000000e+00
8.71569595e+02
1.22112771e+03
1.26256251e+03
1.20753721e+03
1.33967303e+03
1.38105837e+03
1.27058343e+03
1.04822531e+03
1.16538869e+03
1.09020340e+03
1.24254948e+03
1.19624614e+03
1.29154321e+03
1.33753566e+03
1.44036495e+03
1.47843017e+03
1.36038629e+03
1.35268576e+03
1.29608345e+03
1.32787091e+03
1.12464113e+03
7.70633215e+02
9.89843117e+02
1.15818574e+03
1.17394906e+03
1.20931981e+03
1.03226146e+03
1.06065137e+03
1.00369958e+03
7.26704499e+02
8.27077621e+02
9.91918515e+02
1.04182322e+03
9.86701272e+02
1.16510597e+03
1.12988096e+03
1.20563568e+03
1.25574586e+03
1.13421578e+03
1.22046801e+03
1.18552389e+03
1.19683897e+03
0.00000000e+00
8.58016096e+02
1.27304364e+03
1.11613387e+03
1.25012514e+03
1.18081372e+03
1.04739040e+03
9.78721006e+02
1.21348935e+03
1.15797427e+03
1.20476372e+03
1.21400265e+03
1.22051644e+03
1.08610359e+03
9.50468113e+02
1.06333448e+03
1.15488281e+03
9.15659682e+02
1.22956792e+03
9.15029006e+02
9.38864047e+02
0.00000000e+00
8.20430537e+02
8.42203765e+02
9.82587443e+02
1.10658848e+03
9.27608019e+02
8.27748950e+02
6.53177798e+02
7.04722033e+02
7.28840418e+02
0.00000000e+00
0.00000000e+00
0.00000000e+00
0.00000000e+00
7.00154927e+02
6.38520002e+02
8.70239874e+02
6.39063847e+02
5.40686804e+02
7.00368879e+02
0.00000000e+00
0.00000000e+00
6.08103242e+02
0.00000000e+00
0.00000000e+00
0.00000000e+00
0.00000000e+00
0.00000000e+00
0.00000000e+00
0.00000000e+00
0.00000000e+00
0.00000000e+00
0.00000000e+00
6.71240228e+02
0.00000000e+00
6.17892963e+02
4.63221182e+02
0.00000000e+00
0.00000000e+00
0.00000000e+00
0.00000000e+00
0.00000000e+00
0.00000000e+00
0.00000000e+00
0.00000000e+00
0.00000000e+00
7.05287543e+02
0.00000000e+00