# vtk DataFile Version 3.0
MPS 3D Simulation Step 5700
ASCII
DATASET UNSTRUCTURED_GRID
POINTS 20213 double
-1.08672460e-03 3.80142528e-04 -9.06971998e-04
-1.00815910e-03 2.29987911e-04 -9.13604100e-04
-8.81286467e-04 2.92983311e-04 -1.06310199e-03
-8.46448459e-04 3.47910734e-04 -1.11298950e-03
-7.67510762e-04 1.81954025e-04 -1.08494777e-03
-7.55820360e-04 3.84780318e-04 -1.18336383e-03
-5.96056212e-04 1.78998246e-04 -1.18559166e-03
-4.79611870e-04 2.53822597e-04 -1.27829691e-03
-3.47356818e-04 1.19345085e-04 -1.23883687e-03
-3.39874802e-04 8.09766607e-04 -1.13047336e-03
-1.14611799e-04 7.34488984e-04 -1.29533083e-03
-2.08365051e-04 6.90691218e-04 -1.28767958e-03
-1.11571883e-04 4.68964587e-04 -1.28257485e-03
6.51480311e-05 1.73639960e-04 -1.30970490e-03
1.29075240e-04 1.26547747e-04 -1.27280970e-03
5.26938603e-04 1.41800312e-04 -1.21383947e-03
3.51824923e-04 5.91713391e-04 -1.01562721e-03
6.03370885e-04 1.46653477e-04 -1.18008520e-03
6.86959986e-04 4.34925232e-04 -1.07097829e-03
8.65742060e-04 5.76889439e-04 -8.79661946e-04
1.04018545e-03 3.33708682e-04 -7.92089441e-04
-1.04058499e-03 3.16816662e-04 -9.28012751e-04
-9.74600247e-04 2.82875783e-04 -9.74312218e-04
-9.43607658e-04 3.33033236e-04 -1.02919588e-03
-8.21159664e-04 4.18737775e-04 -1.14992133e-03
-7.79248164e-04 5.66755968e-04 -1.19396225e-03
-8.77203817e-04 4.65457442e-04 -1.11915872e-03
-7.03701127e-04 4.34899854e-04 -1.22210593e-03
-4.68697681e-04 3.48442757e-04 -1.30724315e-03
-3.04362394e-04 1.73571877e-04 -1.29202156e-03
-2.28532642e-04 1.47417410e-04 -1.28438042e-03
4.12969990e-05 2.62183453e-04 -1.35108084e-03
1.83088554e-04 1.79908003e-04 -1.31150742e-03
2.60216127e-04 2.89097402e-04 -1.34971213e-03
3.29014381e-04 3.30076908e-04 -1.35265982e-03
3.35620987e-04 2.46260606e-04 -1.32316876e-03
4.50754640e-04 1.41896549e-04 -1.24610943e-03
4.95897574e-04 2.05665604e-04 -1.26457786e-03
5.35102136e-04 3.91909627e-04 -1.18439710e-03
5.79690436e-04 2.12437166e-04 -1.22936293e-03
7.32168091e-04 1.91017313e-04 -1.13549326e-03
8.90594395e-04 1.23303673e-04 -9.51542506e-04
-1.00789061e-03 3.72196078e-04 -9.83807136e-04
-9.71403541e-04 4.26924155e-04 -1.03388084e-03
-9.92547431e-04 6.29619264e-04 -1.02075927e-03
-7.81418422e-04 3.11336887e-04 -1.14536748e-03
-9.05898931e-04 3.91006453e-04 -1.07848363e-03
-7.73754778e-04 4.80195868e-04 -1.18922512e-03
-5.37509379e-04 3.11844219e-04 -1.27073377e-03
-6.07294453e-04 2.97914408e-04 -1.23450311e-03
-3.61106834e-04 3.33825085e-04 -1.34333122e-03
-2.45649957e-04 2.24140246e-04 -1.32765368e-03
-9.29738071e-05 4.05432349e-04 -1.39111481e-03
1.13386963e-04 2.23853937e-04 -1.33848530e-03
1.75826121e-04 4.18386010e-04 -1.37916383e-03
4.03616681e-04 3.11075947e-04 -1.33318239e-03
3.23741169e-04 1.54243585e-04 -1.28705477e-03
4.46778799e-04 3.78202053e-04 -1.33307391e-03
5.55278899e-04 2.78569459e-04 -1.26691069e-03
4.88379373e-04 2.97331974e-04 -1.30250959e-03
7.18044835e-04 2.64972944e-04 -1.17569550e-03
8.14885851e-04 1.91267000e-04 -1.07614407e-03
8.11481382e-04 1.23504003e-04 -1.01272545e-03
-1.11599677e-03 4.62084479e-04 -8.90916068e-04
-1.01371138e-03 4.93614060e-04 -1.00288581e-03
-9.71899691e-04 5.55810541e-04 -1.04508061e-03
-8.39500220e-04 5.26632446e-04 -1.15256415e-03
-7.12277110e-04 5.19178369e-04 -1.22980381e-03
-6.68099760e-04 3.59501408e-04 -1.22412349e-03
-5.97545957e-04 3.84014337e-04 -1.26067295e-03
-2.98308561e-04 2.81381068e-04 -1.34186712e-03
-2.30623696e-04 3.21253919e-04 -1.36358144e-03
-1.66293019e-04 1.86485075e-04 -1.31524884e-03
-7.98107667e-06 4.26481725e-04 -1.39496909e-03
-1.24386394e-05 1.94447872e-04 -1.31990313e-03
3.83939339e-05 3.43899279e-04 -1.37906637e-03
1.19380872e-04 3.08179406e-04 -1.36670040e-03
2.70590653e-04 3.91071471e-04 -1.36488368e-03
4.31682743e-04 2.43369724e-04 -1.30475973e-03
4.96347149e-04 4.44533893e-04 -1.32406694e-03
7.69386030e-04 3.34876659e-04 -1.16496965e-03
7.89438170e-04 2.58269087e-04 -1.12775590e-03
8.59375999e-04 2.57817831e-04 -1.07805871e-03
9.29362510e-04 2.61801971e-04 -1.02267863e-03
-1.13930769e-03 5.40455436e-04 -8.66657993e-04
-9.29673183e-04 6.42137275e-04 -1.07465554e-03
-9.37451843e-04 4.88556649e-04 -1.07329585e-03
-7.09220962e-04 5.98719723e-04 -1.23445591e-03
-5.56459080e-04 4.88990318e-04 -1.29280580e-03
-6.32931244e-04 4.57945842e-04 -1.25785074e-03
-2.95606023e-04 3.75294118e-04 -1.36697537e-03
-2.29333904e-04 4.25158836e-04 -1.38245780e-03
-1.66690129e-04 3.69636206e-04 -1.38201749e-03
-6.87744647e-05 4.92857149e-04 -1.40105140e-03
1.22853935e-05 5.23388199e-04 -1.40260661e-03
-1.13722954e-04 3.07585749e-04 -1.36842918e-03
6.56276620e-05 4.59245481e-04 -1.39465576e-03
2.88839664e-04 5.57592695e-04 -1.37204760e-03
1.03036736e-04 3.88124222e-04 -1.38507967e-03
3.64436718e-04 4.04841605e-04 -1.35586832e-03
4.18897828e-04 4.67485462e-04 -1.34804124e-03
6.40838014e-04 2.73087142e-04 -1.22170961e-03
8.40633180e-04 3.33063324e-04 -1.11612759e-03
9.10283860e-04 3.29511720e-04 -1.06533904e-03
8.85834234e-04 4.09614475e-04 -1.09998833e-03
-1.14452541e-03 6.32543272e-04 -8.51313556e-04
-1.04211849e-03 5.72242313e-04 -9.79908367e-04
-8.71832504e-04 6.83509924e-04 -1.11626305e-03
-9.05783927e-04 5.64509469e-04 -1.10185374e-03
-6.35398742e-04 5.39253743e-04 -1.26748460e-03
-4.67204725e-04 4.50259153e-04 -1.32581055e-03
-4.06822560e-04 3.98461451e-04 -1.34140829e-03
-3.41720799e-04 4.42457438e-04 -1.36589628e-03
-1.53007853e-04 4.65342968e-04 -1.39464053e-03
-2.13800620e-04 5.27898735e-04 -1.39368113e-03
-1.33828824e-04 5.55669279e-04 -1.40099185e-03
-3.73311783e-05 3.45692570e-04 -1.38242700e-03
2.38990382e-04 4.73982931e-04 -1.37424765e-03
3.23868590e-04 4.75148210e-04 -1.36356321e-03
1.84025219e-04 2.57164571e-04 -1.34755073e-03
3.22390460e-04 6.98914172e-04 -1.37030594e-03
3.80674764e-04 5.42978218e-04 -1.35991207e-03
5.28738346e-04 3.64461604e-04 -1.30160939e-03
6.91840753e-04 3.38503655e-04 -1.21203088e-03
8.12863472e-04 4.11551728e-04 -1.14872548e-03
9.96583445e-04 4.77250307e-04 -1.01901934e-03
-1.09891168e-03 5.95660264e-04 -9.14588908e-04
-1.08009212e-03 5.14659607e-04 -9.39558226e-04
-9.33165526e-04 7.25162978e-04 -1.05627061e-03
-7.89848387e-04 6.48319153e-04 -1.18197075e-03
-6.40481741e-04 6.25597963e-04 -1.26872765e-03
-4.87128451e-04 5.32551177e-04 -1.32662776e-03
-4.01512757e-04 4.99860171e-04 -1.35464111e-03
-2.82896774e-04 4.93159676e-04 -1.38316276e-03
-3.43619261e-04 5.51679198e-04 -1.37434466e-03
-2.76902304e-04 5.91533249e-04 -1.38684014e-03
-5.20465513e-05 5.82360958e-04 -1.40707066e-03
8.96830135e-05 5.63305120e-04 -1.39956881e-03
1.39066870e-04 4.93766115e-04 -1.38889089e-03
2.01526626e-04 5.50586224e-04 -1.38621960e-03
2.50011675e-04 6.36121024e-04 -1.38228383e-03
5.56173653e-04 4.92066781e-04 -1.30654431e-03
5.43895159e-04 5.68169933e-04 -1.31618255e-03
6.10552056e-04 3.41098861e-04 -1.25782725e-03
5.84299452e-04 4.18366568e-04 -1.28433019e-03
9.26655232e-04 4.86613053e-04 -1.07786407e-03
9.02545628e-04 5.67451162e-04 -1.10104737e-03
-1.14466416e-03 7.22985975e-04 -8.31003949e-04
-1.05389897e-03 6.54031044e-04 -9.54634936e-04
-9.95505976e-04 7.06452077e-04 -1.00248427e-03
-8.50410518e-04 6.09177645e-04 -1.14332547e-03
-5.63802263e-04 5.75906770e-04 -1.29943282e-03
-4.23406420e-04 5.85626228e-04 -1.35196780e-03
-4.36695374e-04 6.73155187e-04 -1.34750917e-03
-3.59673564e-04 6.37767270e-04 -1.36993575e-03
-2.81542326e-04 6.74312346e-04 -1.38132248e-03
-1.96750436e-04 6.18538574e-04 -1.39677279e-03
-1.15482706e-04 6.40194461e-04 -1.40416325e-03
2.18509587e-05 6.18033291e-04 -1.40833379e-03
9.44514171e-05 6.55259349e-04 -1.40542355e-03
1.61548821e-04 6.14855437e-04 -1.39697279e-03
2.49339199e-04 7.24059491e-04 -1.38559465e-03
4.72955652e-04 5.33061657e-04 -1.33691538e-03
4.30264046e-04 6.09734508e-04 -1.35090492e-03
6.16613104e-04 5.76166851e-04 -1.28147640e-03
6.63303203e-04 4.17293644e-04 -1.23997012e-03
8.58704407e-04 4.89241920e-04 -1.12814535e-03
8.72796606e-04 6.44509168e-04 -1.12624590e-03
-1.10327077e-03 6.87696357e-04 -8.93567857e-04
-1.04736925e-03 7.39974412e-04 -9.38821071e-04
-9.85056006e-04 7.86888687e-04 -9.89028110e-04
-6.58360279e-04 7.05778316e-04 -1.25415321e-03
-5.75435791e-04 6.62016260e-04 -1.29612634e-03
-4.99184112e-04 6.22059748e-04 -1.32678808e-03
-4.45268285e-04 7.57283173e-04 -1.33407513e-03
-3.63753441e-04 7.22215430e-04 -1.36188082e-03
-2.91619763e-04 7.56844016e-04 -1.37091877e-03
-2.00173241e-04 7.01211854e-04 -1.39239694e-03
-1.19719804e-04 7.21141951e-04 -1.39925192e-03
-3.71392748e-05 6.76419398e-04 -1.40760344e-03
3.68620838e-05 7.14669754e-04 -1.40438959e-03
1.13837908e-04 7.44437955e-04 -1.39912187e-03
1.79023767e-04 6.95362851e-04 -1.39684107e-03
4.06206099e-04 6.94715895e-04 -1.35156841e-03
4.39262587e-04 7.80026706e-04 -1.33058927e-03
5.02074778e-04 6.34902847e-04 -1.33145204e-03
6.33836922e-04 4.93003130e-04 -1.26426860e-03
7.37164113e-04 4.10489937e-04 -1.19482595e-03
8.35978288e-04 5.70656824e-04 -1.14999653e-03
-1.09278546e-03 7.74948633e-04 -8.74247805e-04
-9.73553812e-04 8.66990370e-04 -9.70071385e-04
-8.72341771e-04 7.69140893e-04 -1.09751647e-03
-7.26569214e-04 6.75650530e-04 -1.22061292e-03
-6.71946305e-04 7.82459986e-04 -1.23019573e-03
-5.12907531e-04 7.10539199e-04 -1.31690285e-03
-5.24119361e-04 7.93020274e-04 -1.29744903e-03
-3.75833801e-04 8.03356848e-04 -1.34386872e-03
-3.02866129e-04 8.38376092e-04 -1.35344720e-03
-2.15195952e-04 7.82375450e-04 -1.38026489e-03
-1.38519395e-04 8.00570733e-04 -1.38395716e-03
-4.93516466e-05 7.61196343e-04 -1.39776692e-03
2.16099788e-05 7.95196162e-04 -1.39125969e-03
9.74712480e-05 8.24168939e-04 -1.38188791e-03
1.88575380e-04 7.88888104e-04 -1.38240233e-03
3.58800060e-04 7.73439048e-04 -1.35492568e-03
5.15667992e-04 8.01707886e-04 -1.29729882e-03
4.86734730e-04 7.14182037e-04 -1.32830046e-03
6.89757121e-04 5.72476656e-04 -1.24106026e-03
7.85983043e-04 4.91333146e-04 -1.17393347e-03
8.41124690e-04 7.20543750e-04 -1.13836813e-03
-1.03414532e-03 8.22235827e-04 -9.23552926e-04
-9.60029495e-04 9.44790274e-04 -9.47423766e-04
[...]
POINT_DATA 20213
SCALARS pressure double 1
LOOKUP_TABLE default
1.20755958e+03
9.46302564e+02
0.00000000e+00
0.00000000e+00
0.00000000e+00
0.00000000e+00
0.00000000e+00
0.00000000e+00
6.37924491e+02
1.30126966e+03
1.40090133e+03
1.46307760e+03
1.65557967e+03
0.00000000e+00
7.69395893e+02
7.10445809e+02
1.35102355e+03
6.84401850e+02
1.08737714e+03
1.12771091e+03
8.46662964e+02
1.08208149e+03
7.36721741e+02
0.00000000e+00
0.00000000e+00
0.00000000e+00
0.00000000e+00
0.00000000e+00
9.90653692e+02
7.98751434e+02
0.00000000e+00
1.15122504e+03
8.32833384e+02
8.65711765e+02
0.00000000e+00
0.00000000e+00
0.00000000e+00
0.00000000e+00
1.09873747e+03
8.19460790e+02
5.12695646e+02
0.00000000e+00
9.11683833e+02
0.00000000e+00
9.41718128e+02
0.00000000e+00
0.00000000e+00
0.00000000e+00
0.00000000e+00
0.00000000e+00
1.22576179e+03
0.00000000e+00
1.62905590e+03
9.39971243e+02
1.06789302e+03
0.00000000e+00
0.00000000e+00
0.00000000e+00
9.42349747e+02
0.00000000e+00
0.00000000e+00
0.00000000e+00
0.00000000e+00
1.13017227e+03
0.00000000e+00
8.30907844e+02
0.00000000e+00
9.56780472e+02
0.00000000e+00
0.00000000e+00
1.10832232e+03
1.30570171e+03
0.00000000e+00
1.45018770e+03
0.00000000e+00
1.37294456e+03
1.12487276e+03
0.00000000e+00
0.00000000e+00
8.28968861e+02
0.00000000e+00
0.00000000e+00
0.00000000e+00
0.00000000e+00
0.00000000e+00
0.00000000e+00
0.00000000e+00
1.11252950e+03
1.16276582e+03
9.26666113e+02
1.39806080e+03
1.60721237e+03
1.39791494e+03
1.64723708e+03
1.32665794e+03
1.29864994e+03
0.00000000e+00
0.00000000e+00
1.18276938e+03
0.00000000e+00
0.00000000e+00
8.93249628e+02
6.41047872e+02
0.00000000e+00
0.00000000e+00
0.00000000e+00
9.43342433e+02
9.16691907e+02
7.20351815e+02
1.11142111e+03
0.00000000e+00
1.20299276e+03
1.53047237e+03
1.71338872e+03
1.68901415e+03
1.70456991e+03
1.46194379e+03
0.00000000e+00
0.00000000e+00
1.00268715e+03
0.00000000e+00
0.00000000e+00
9.84816318e+02
9.84390863e+02
0.00000000e+00
5.78329484e+02
9.10649265e+02
1.10410215e+03
0.00000000e+00
9.69372637e+02
1.18524578e+03
1.26806681e+03
0.00000000e+00
1.60502555e+03
1.44868051e+03
0.00000000e+00
1.53135015e+03
0.00000000e+00
9.41646258e+02
0.00000000e+00
0.00000000e+00
0.00000000e+00
0.00000000e+00
1.00028106e+03
9.25069976e+02
0.00000000e+00
8.37312232e+02
0.00000000e+00
8.21610889e+02
0.00000000e+00
0.00000000e+00
1.27758364e+03
1.34579074e+03
1.18241060e+03
1.28203465e+03
1.32295060e+03
1.59677056e+03
1.56947402e+03
1.19939095e+03
0.00000000e+00
0.00000000e+00
0.00000000e+00
0.00000000e+00
0.00000000e+00
0.00000000e+00
9.95924803e+02
0.00000000e+00
0.00000000e+00
0.00000000e+00
0.00000000e+00
6.92696884e+02
1.13804294e+03
1.15841081e+03
1.28533592e+03
0.00000000e+00
1.10695775e+03
0.00000000e+00
1.43652409e+03
1.50557464e+03
1.34670690e+03
9.07976050e+02
0.00000000e+00
0.00000000e+00
0.00000000e+00
0.00000000e+00
0.00000000e+00
0.00000000e+00
9.51406190e+02
9.14228507e+02
0.00000000e+00
8.34103719e+02
8.08410085e+02
1.14440562e+03
0.00000000e+00
0.00000000e+00
0.00000000e+00
9.03671248e+02
0.00000000e+00
1.21864724e+03
1.20921338e+03
1.15809943e+03
0.00000000e+00
0.00000000e+00
0.00000000e+00
0.00000000e+00
8.29997114e+02
0.00000000e+00
0.00000000e+00
9.31519825e+02
0.00000000e+00
7.29596661e+02
0.00000000e+00
1.05398658e+03
0.00000000e+00
0.00000000e+00
0.00000000e+00
0.00000000e+00
8.36096595e+02
0.00000000e+00
9.05557406e+02
5.52129632e+02
0.00000000e+00
1.01574782e+03
0.00000000e+00
5.81783571e+02
0.00000000e+00
0.00000000e+00
0.00000000e+00
0.00000000e+00
9.47811875e+02
8.80905418e+02
0.00000000e+00
0.00000000e+00
0.00000000e+00
0.00000000e+00
0.00000000e+00
0.00000000e+00
0.00000000e+00
8.16589054e+02
7.81396680e+02
0.00000000e+00
0.00000000e+00
8.44896831e+02
0.00000000e+00
0.00000000e+00
6.71488283e+02
0.00000000e+00
8.38512826e+02
8.57607763e+02
8.73866291e+02
9.34601243e+02
6.20003592e+02
7.04875187e+02
0.00000000e+00
8.40957605e+02
0.00000000e+00
0.00000000e+00
0.00000000e+00
0.00000000e+00
0.00000000e+00
8.24387797e+02
0.00000000e+00
0.00000000e+00
7.54969547e+02
0.00000000e+00
8.07495744e+02
8.30724509e+02
0.00000000e+00
8.05773529e+02
0.00000000e+00
7.93814263e+02
0.00000000e+00
0.00000000e+00
8.22152994e+02
0.00000000e+00
0.00000000e+00
9.02876325e+02
0.00000000e+00
0.00000000e+00
0.00000000e+00
0.00000000e+00
6.71502298e+02
6.22406210e+02
0.00000000e+00
0.00000000e+00
7.75829323e+02
0.00000000e+00
8.76566934e+02
8.20163055e+02
9.57114687e+02
0.00000000e+00
0.00000000e+00
0.00000000e+00
0.00000000e+00
0.00000000e+00
9.33498826e+02
8.31073179e+02
8.89258092e+02
0.00000000e+00
0.00000000e+00
0.00000000e+00
0.00000000e+00
7.98862615e+02
5.51410618e+02
0.00000000e+00
0.00000000e+00
0.00000000e+00
8.22280467e+02
0.00000000e+00
9.06860469e+02
0.00000000e+00
1.08522625e+03
8.48817645e+02
0.00000000e+00
6.85769976e+02
8.96014723e+02
1.00252222e+03
0.00000000e+00
9.60207549e+02
1.00012141e+03
0.00000000e+00
0.00000000e+00
0.00000000e+00
0.00000000e+00
0.00000000e+00
0.00000000e+00
0.00000000e+00
9.03609904e+02
9.66880629e+02
0.00000000e+00
0.00000000e+00
1.19601483e+03
1.02712566e+03
7.27756819e+02
0.00000000e+00
0.00000000e+00
1.07093673e+03
0.00000000e+00
9.01068955e+02
9.46325073e+02
0.00000000e+00
0.00000000e+00
0.00000000e+00
5.52045657e+02
0.00000000e+00
0.00000000e+00
4.51798563e+02
0.00000000e+00
0.00000000e+00
6.81432779e+02
8.80970198e+02
1.16160255e+03
1.14745161e+03
1.16709103e+03
9.77603168e+02
7.63416899e+02
0.00000000e+00
9.85682507e+02
7.92719526e+02
0.00000000e+00
9.79424807e+02
7.83283564e+02
0.00000000e+00
0.00000000e+00
0.00000000e+00
0.00000000e+00
0.00000000e+00
0.00000000e+00
0.00000000e+00
0.00000000e+00
0.00000000e+00
1.00984381e+03
0.00000000e+00
1.16527321e+03
1.15443972e+03
9.20829210e+02
0.00000000e+00
0.00000000e+00
0.00000000e+00
0.00000000e+00
0.00000000e+00
4.56472760e+02
5.99192454e+02
0.00000000e+00
0.00000000e+00
0.00000000e+00
0.00000000e+00
0.00000000e+00
0.00000000e+00
0.00000000e+00
0.00000000e+00
0.00000000e+00
0.00000000e+00
6.24946391e+02
9.56722715e+02
0.00000000e+00
0.00000000e+00
0.00000000e+00
0.00000000e+00
0.00000000e+00
0.00000000e+00
0.00000000e+00
0.00000000e+00
0.00000000e+00
0.00000000e+00
0.00000000e+00
0.00000000e+00
0.00000000e+00
0.00000000e+00
0.00000000e+00
0.00000000e+00
0.00000000e+00
0.00000000e+00
0.00000000e+00
0.00000000e+00
7.85436887e+02
7.91151125e+02
7.74809043e+02
7.81064581e+02
8.68665908e+02
0.00000000e+00
5.73317060e+02
6.83206312e+02
0.00000000e+00
0.00000000e+00
0.00000000e+00
0.00000000e+00
0.00000000e+00
0.00000000e+00
0.00000000e+00
0.00000000e+00
0.00000000e+00
0.00000000e+00
0.00000000e+00
0.00000000e+00
7.54276228e+02
0.00000000e+00
0.00000000e+00
0.00000000e+00
0.00000000e+00
1.01810154e+03
1.14752974e+03
1.35311226e+03
1.03000188e+03
0.00000000e+00
0.00000000e+00
0.00000000e+00
5.80314790e+02
0.00000000e+00
0.00000000e+00
1.22836141e+03
1.41759966e+03
1.45730001e+03
1.14406610e+03
1.05610211e+03
1.00374982e+03
1.71694137e+03
0.00000000e+00
1.25826499e+03
1.30481468e+03
4.23625856e+02
0.00000000e+00
1.16583176e+03
1.42711247e+03
9.52520323e+02
1.70797519e+03
1.05575923e+03
1.20581401e+03
1.23823405e+03
1.14965337e+03
1.01972316e+03
1.76353487e+03
2.35034518e+03
2.28866063e+03
8.42931685e+02
2.27497354e+03
1.93223930e+03
1.40508997e+03
1.30983692e+03
1.26805463e+03
1.67419194e+03
1.14533672e+03
0.00000000e+00
1.03787242e+03
1.05913409e+03
1.20148606e+03
1.50384177e+03
6.78179924e+02
1.21424936e+03
1.76079632e+03
9.45466939e+02
0.00000000e+00
9.70257924e+02
0.00000000e+00
1.19319452e+03
0.00000000e+00
1.00854434e+03
2.24468230e+03
1.17926684e+03
1.14711190e+03
9.26937954e+02
1.61481250e+03
1.57194537e+03
0.00000000e+00
0.00000000e+00
8.52760407e+02
2.25467793e+03
1.34091585e+03
8.14040918e+02
2.49522562e+03
9.50341158e+02
1.46241021e+03
6.32957233e+02
1.89764889e+03
1.32429497e+03
1.39727246e+03
1.48761026e+03
1.26946789e+03
1.17366567e+03
1.10548905e+03
1.81470191e+03
1.12625457e+03
1.09493452e+03
1.91776394e+03
0.00000000e+00
8.18036878e+02
1.19856199e+03
1.43877650e+03
1.60445504e+03
2.33191640e+03
2.01498792e+03
1.07840132e+03
7.37407171e+02
9.56470463e+02
1.72500008e+03
2.03361172e+03
2.46962131e+03
9.87883586e+02
2.17503923e+03
8.25245886e+02
2.06113079e+03
1.02438498e+03
1.31716191e+03
1.59427467e+03
1.06491320e+03
0.00000000e+00
0.00000000e+00
2.40087751e+03
1.03048224e+03
1.08770546e+03
2.40451587e+03
9.28946743e+02
2.15289973e+03
1.42918678e+03
7.52907307e+02
7.87375321e+02
2.18077965e+03
7.28704707e+02
1.43764290e+03
1.40410951e+03
8.77302260e+02
0.00000000e+00
9.61408152e+02
1.29402463e+03
9.13031510e+02
1.45540070e+03
0.00000000e+00
0.00000000e+00
1.41007101e+03
1.19430394e+03
1.33632842e+03
1.54163205e+03
1.02700880e+03
1.73706411e+03
1.47417748e+03
9.16089235e+02
2.45880831e+03
6.36977235e+02
1.58494957e+03
2.44389126e+03
1.25741422e+03
1.24278715e+03
1.49376497e+03
1.45510458e+03
1.06525558e+03
1.18236727e+03
8.84153083e+02
7.85397016e+02
0.00000000e+00
1.08891196e+03
0.00000000e+00
1.31178713e+03
1.33860709e+03
1.71702002e+03
1.10771501e+03
2.14102990e+03
2.17120725e+03
1.76728651e+03
1.25413604e+03
9.03019889e+02
2.41621395e+03
1.05592473e+03
1.57624577e+03
1.89456069e+03
1.03988762e+03
1.05945134e+03
0.00000000e+00
9.47692412e+02
9.35274505e+02
0.00000000e+00
1.85762209e+03
8.62326423e+02
8.53861172e+02
2.15884382e+03
1.44507381e+03
1.04518242e+03
1.86528459e+03
1.79167557e+03
8.29033735e+02
1.56685764e+03
2.35924790e+03
2.35064039e+03
1.23502446e+03
1.06819195e+03
1.25648140e+03
2.26454527e+03
2.29560649e+03
1.02721690e+03
1.39282552e+03
1.01157865e+03
0.00000000e+00
2.04777327e+03
9.72537798e+02
1.19452900e+03
1.17880404e+03
7.50367501e+02
5.37210037e+02
4.01727324e+02
1.71716694e+03
8.95904640e+02
1.10111410e+03
1.07329360e+03
2.22091751e+03
7.58510431e+02
9.30613231e+02
8.82458706e+02
1.19078235e+03
1.27775068e+03
0.00000000e+00
1.13299623e+03
0.00000000e+00
0.00000000e+00
1.45014532e+03
0.00000000e+00
1.08998648e+03
9.55580019e+02
1.05484108e+03
6.69284021e+02
1.22968046e+03
1.29992294e+03
1.84791577e+03
7.63622496e+02
1.84511662e+03
1.16836594e+03
1.87744248e+03
9.64570907e+02
1.15769205e+03
1.88653229e+03
2.37655192e+03
0.00000000e+00
1.70636587e+03
1.00463880e+03
0.00000000e+00
1.25480549e+03
0.00000000e+00
8.30955175e+02
9.91590532e+02
7.16463682e+02
8.05081196e+02
4.17395994e+02
2.41370933e+03
1.48967742e+03
2.31329362e+03
1.42629027e+03
1.59209737e+03
6.11690722e+02
1.49202469e+03
1.04697606e+03
1.03366451e+03
1.01518076e+03
8.37218082e+02
1.68877645e+03
0.00000000e+00
0.00000000e+00
1.35897744e+03
0.00000000e+00
1.42115732e+03
1.79202946e+03
8.96597980e+02
9.36247458e+02
1.75928077e+03
2.47917464e+03
9.16095785e+02
1.48041754e+03
2.18309436e+03
1.19831857e+03
2.41712859e+03
8.54423615e+02
1.30499891e+03
1.25503958e+03
2.29910238e+03
8.85526760e+02
2.08674325e+03
0.00000000e+00
0.00000000e+00
9.95563221e+02
7.70881558e+02
1.47534271e+03
8.18688123e+02
6.60459408e+02
1.00260434e+03
8.05483830e+02
2.08014623e+03
3.92004594e+02
8.03936037e+02
3.61176295e+02
8.89728234e+02
4.52014399e+02
6.83255567e+02
1.29218678e+03
1.27889011e+03
1.61367067e+03
8.37706774e+02
1.01153437e+03
1.08662099e+03
0.00000000e+00
8.07948208e+02
7.60607871e+02
1.11001668e+03
1.35739427e+03
9.17348029e+02
1.89388141e+03
2.40513692e+03
1.75909139e+03
4.79472583e+02
2.17310463e+03
5.13584534e+02
5.10241970e+02
4.12622644e+02
1.16327761e+03
1.58169052e+03
2.13124693e+03
1.01554133e+03
1.47649951e+03
1.05811249e+03
0.00000000e+00
1.02103020e+03
1.14837607e+03
9.86762804e+02
7.25563927e+02
6.63767732e+02
0.00000000e+00
8.14032989e+02
4.41984107e+02
4.85039279e+02
8.15455379e+02
9.54762654e+02
1.66480534e+03
1.12268138e+03
5.50393431e+02
9.09969195e+02
1.05474906e+03
1.92708064e+03
1.35195922e+03
1.63013655e+03
9.94031795e+02
0.00000000e+00
1.11851593e+03
1.32682145e+03
1.57261766e+03
7.19845574e+02
2.31559416e+03
4.25245974e+02
1.05617159e+03
4.74746853e+02
1.89308559e+03
3.97766667e+02
8.15548909e+02
6.21485125e+02
1.56452587e+03
1.14082548e+03
2.37293565e+03
9.76894946e+02
2.42426663e+03
1.28119280e+03
1.87584313e+03
1.03737317e+03
0.00000000e+00
0.00000000e+00
1.01457852e+03
6.74587122e+02
1.09001238e+03
5.87763717e+02
1.91918671e+03
8.97285418e+02
4.95234415e+02
1.48910408e+03
5.86207400e+02
1.07496431e+03
7.74853867e+02
2.27107195e+03
1.96504228e+03
1.17048448e+03
1.03210172e+03
1.27902778e+03
1.55306782e+03
1.03048612e+03
1.06462544e+03
9.61355792e+02
1.07096177e+03
9.23372883e+02
5.85596855e+02
6.18328458e+02
1.57104079e+03
1.00678194e+03
5.76235782e+02
0.00000000e+00
0.00000000e+00
0.00000000e+00
0.00000000e+00
0.00000000e+00
0.00000000e+00
0.00000000e+00
1.06392492e+03
1.28612025e+03
1.30807082e+03
1.12183179e+03
1.01151122e+03
1.58069197e+03
1.14586074e+03
9.20143825e+02
1.92007290e+03
6.03405095e+02
1.46761011e+03
6.71238662e+02
1.47685129e+03
9.59970275e+02
6.75306640e+02
1.28729437e+03
7.73997203e+02
1.85478145e+03
1.13547094e+03
2.07175267e+03
1.06680376e+03
1.21416048e+03
1.11665080e+03
1.22238698e+03
1.37337361e+03
1.35334035e+03
2.17007253e+03
1.15921369e+03
7.82469281e+02
0.00000000e+00
6.36744959e+02
5.77376941e+02
6.06329975e+02
0.00000000e+00
0.00000000e+00
0.00000000e+00
0.00000000e+00
0.00000000e+00
0.00000000e+00
0.00000000e+00
0.00000000e+00
0.00000000e+00
7.71830349e+02
8.68071421e+02
0.00000000e+00
7.72818025e+02
7.00177264e+02
0.00000000e+00
1.38624778e+03
9.12927204e+02
9.79961924e+02
1.16337422e+03
0.00000000e+00
9.69098062e+02
0.00000000e+00
0.00000000e+00
0.00000000e+00
0.00000000e+00
1.01785310e+03
9.30407518e+02
1.36248132e+03
1.00753675e+03
6.61854289e+02
1.03056240e+03
0.00000000e+00
9.02254925e+02
1.33994963e+03
4.82425250e+02
0.00000000e+00
6.51520334e+02
1.00517063e+03
1.08667936e+03
1.08999372e+03
7.95961774e+02
8.84938025e+02
9.10951822e+02
1.21431038e+03
1.03909809e+03
2.04775978e+03
0.00000000e+00
1.16551871e+03
1.19286345e+03
9.37741113e+02
0.00000000e+00
1.05239309e+03
1.62176526e+03
2.32254076e+03
1.84956160e+03
1.51807280e+03
1.49134041e+03
7.06082353e+02
1.19178316e+03
1.28493772e+03
1.90076220e+03
2.08440203e+03
2.49756536e+03
1.49685210e+03
2.26924164e+03
1.21517300e+03
2.30307255e+03
1.14531197e+03
8.92274368e+02
1.86649585e+03
1.79367680e+03
1.42709129e+03
1.58150991e+03
2.15289680e+03
1.14182036e+03
8.15807224e+02
8.61392724e+02
1.75176109e+03
0.00000000e+00
0.00000000e+00
1.13925374e+03
1.33847054e+03
9.84812796e+02
1.56636538e+03
5.99408610e+02
1.36354308e+03
1.19939235e+03
2.04053927e+03
8.67801908e+02
8.60270192e+02
1.52087597e+03
1.48601165e+03
9.00023498e+02
1.09107728e+03
9.87290346e+02
1.16789799e+03
2.02034250e+03
7.80379559e+02
1.20788752e+03
0.00000000e+00
9.30090221e+02
1.41175420e+03
1.61105605e+03
9.11991447e+02
1.19023272e+03
2.34415742e+03
1.20985244e+03
1.39897238e+03
7.05061555e+02
1.60090318e+03
1.07050180e+03
8.85569098e+02
9.07432057e+02
1.31919211e+03
1.58895531e+03
1.22324338e+03
1.10700847e+03
9.45636327e+02
2.13093333e+03
1.29995380e+03
0.00000000e+00
0.00000000e+00
1.32656546e+03
1.99151407e+03
1.32101639e+03
1.98976932e+03
1.98023798e+03
1.28265109e+03
1.51680161e+03
1.19494737e+03
1.07719395e+03
7.10723753e+02
2.10722339e+03
1.88670611e+03
8.28910034e+02
1.31378005e+03
1.81434878e+03
1.47026242e+03
1.68593914e+03
1.26546233e+03
7.87649211e+02
0.00000000e+00
0.00000000e+00
1.34841685e+03
2.53511217e+03
8.34509159e+02
2.11143478e+03
1.52625852e+03
1.33503931e+03
1.64204034e+03
1.90469222e+03
2.21531183e+03
1.53519057e+03
8.03340450e+02
1.25783668e+03
1.15065806e+03
1.74328445e+03
2.33775843e+03
1.29426179e+03
2.22749840e+03
9.99411470e+02
1.26138200e+03
8.35186835e+02
0.00000000e+00
0.00000000e+00
2.27617893e+03
2.03245606e+03
1.79846500e+03
1.86785907e+03
8.63295257e+02
1.60536322e+03
7.32027533e+02
1.47953456e+03
2.13721939e+03
1.75487954e+03
1.39081170e+03
2.11165803e+03
2.17419450e+03
1.26290566e+03
2.05489409e+03
2.35570550e+03
2.23216421e+03
0.00000000e+00
0.00000000e+00
0.00000000e+00
0.00000000e+00
1.01184092e+03
1.17055705e+03
1.78039736e+03
1.16821306e+03
2.43915733e+03
8.84335522e+02
1.88681564e+03
1.80519383e+03
2.02515304e+03
1.16438917e+03
1.52971793e+03
2.09651797e+03
2.36107679e+03
8.80918014e+02
2.39379080e+03
1.98166265e+03
1.40211641e+03
1.01661302e+03
0.00000000e+00
0.00000000e+00
0.00000000e+00
2.10397696e+03
1.05446703e+03
2.35657689e+03
2.42032566e+03
2.03221581e+03
1.06836111e+03
6.93169043e+02
1.84945300e+03
8.12345797e+02
2.36615275e+03
1.23753951e+03
8.75557954e+02
1.56550651e+03
1.31874369e+03
1.64460245e+03
1.39426152e+03
1.42767970e+03
0.00000000e+00
1.20061494e+03
0.00000000e+00
0.00000000e+00
1.46693099e+03
9.89441769e+02
1.98674548e+03
2.05840916e+03
1.57979167e+03
9.24590138e+02
2.46540793e+03
2.46338250e+03
1.39205287e+03
2.41891242e+03
7.11314406e+02
2.23879078e+03
1.83262440e+03
2.07416734e+03
1.01592974e+03
1.61184895e+03
0.00000000e+00
1.00396896e+03
1.16398008e+03
0.00000000e+00
0.00000000e+00
2.52237294e+03
1.12668135e+03
1.70726951e+03
1.33192214e+03
1.43476483e+03
6.56665045e+02
2.41297332e+03
2.21572408e+03
1.78970117e+03
1.47544539e+03
8.39162493e+02
2.42192886e+03
1.12047017e+03
1.52650096e+03
1.22823515e+03
1.64451097e+03
2.24670183e+03
9.73814019e+02
0.00000000e+00
0.00000000e+00
0.00000000e+00
2.44901062e+03
1.05859182e+03
2.42116341e+03
1.80699753e+03
2.46192635e+03
2.24950163e+03
2.37496419e+03
2.26375531e+03
1.54804980e+03
2.31220567e+03
6.03283282e+02
1.96404108e+03
1.51130634e+03
2.37175520e+03
2.34397184e+03
1.32579041e+03
2.31769594e+03
0.00000000e+00
0.00000000e+00
0.00000000e+00
0.00000000e+00
2.46692874e+03
1.00785406e+03
2.49379371e+03
1.42967965e+03
1.33341695e+03
1.62457129e+03
1.60267418e+03
2.06922527e+03
5.53408228e+02
2.45858399e+03
2.41341336e+03
2.21592155e+03
9.73395737e+02
1.19775387e+03
2.32279749e+03
1.88951856e+03
1.71681069e+03
0.00000000e+00
1.39352416e+03
8.84702756e+02
1.80973857e+03
1.77352389e+03
1.53195015e+03
2.22001325e+03
2.01589679e+03
1.60832213e+03
5.15932219e+02
2.25434834e+03
1.95948518e+03
1.50270925e+03
2.06963139e+03
2.29907981e+03
7.86095646e+02
2.19859273e+03
2.32292406e+03
0.00000000e+00
1.71031047e+03
2.01760938e+03
1.14497291e+03
1.27296503e+03
0.00000000e+00
1.35362588e+03
2.24885058e+03
1.92164477e+03
2.40446473e+03
2.38314596e+03
2.29964841e+03
1.40359852e+03
2.47599141e+03
1.97277860e+03
0.00000000e+00
2.33703634e+03
2.35250506e+03
1.55956967e+03
1.92299786e+03
2.38850372e+03
2.28147260e+03
1.91525345e+03
1.59090597e+03
1.03942986e+03
1.33198826e+03
1.19296123e+03
1.92405048e+03
1.47853455e+03
2.44357760e+03
2.35248359e+03
2.03207400e+03
1.24793212e+03
9.27106099e+02
1.99513965e+03
2.38605891e+03
2.22365790e+03
1.58248951e+03
1.80657505e+03
9.62568120e+02
2.24229558e+03
9.36627569e+02
2.25163413e+03
2.16908925e+03
1.99126001e+03
1.62796702e+03
1.67051993e+03
1.06875545e+03
7.28178096e+02
1.04923475e+03
8.86670429e+02
1.76386956e+03
2.20576553e+03
2.28532313e+03
2.02333000e+03
5.21378854e+02
7.68678385e+02
5.59527973e+02
9.89797510e+02
1.00762734e+03
1.33597441e+03
1.64503987e+03
2.27358572e+03
2.22084632e+03
1.97101457e+03
1.91013633e+03
1.27919604e+03
1.77244001e+03
9.52791529e+02
9.23682316e+02
1.94809936e+03
2.04204258e+03
1.49356645e+03
2.22006780e+03
1.55245821e+03
2.19146626e+03
2.33970861e+03
2.33347062e+03
2.09669704e+03
2.39879430e+03
2.31738713e+03
1.61097245e+03
1.61805382e+03
2.01894474e+03
2.26083617e+03
2.28492477e+03
2.04567644e+03
1.35017662e+03
1.49765380e+03
9.45554392e+02
9.55817397e+02
5.82025863e+02
1.77187353e+03
2.15360239e+03
1.92229121e+03
1.35339074e+03
1.17263992e+03
8.03922935e+02
1.02502613e+03
0.00000000e+00
1.10959007e+03
0.00000000e+00
8.91321491e+02
1.41427308e+03
1.35078087e+03
1.71133174e+03
1.13262267e+03
1.95948073e+03
1.06030024e+03
1.69497397e+03
7.69255433e+02
0.00000000e+00
4.94858298e+02
0.00000000e+00
0.00000000e+00
0.00000000e+00
0.00000000e+00
0.00000000e+00
0.00000000e+00
0.00000000e+00
1.33603779e+03
1.09514410e+03
8.84848465e+02
7.34321512e+02
0.00000000e+00
8.39096459e+02
9.23884050e+02
8.20922107e+02
0.00000000e+00
7.96380546e+02
0.00000000e+00
0.00000000e+00
7.42856298e+02
0.00000000e+00
2.03002935e+03
1.07892584e+03
1.27092396e+03