# vtk DataFile Version 3.0
MPS 3D Simulation Step 8400
ASCII
DATASET UNSTRUCTURED_GRID
POINTS 20213 double
-1.15429029e-03 3.29770716e-04 -7.71930320e-04
-1.06509604e-03 1.78560381e-04 -7.94289950e-04
-9.50077645e-04 3.01852404e-04 -1.01446260e-03
-9.03754982e-04 3.35482082e-04 -1.07295373e-03
-8.49953565e-04 1.86966700e-04 -1.03566911e-03
-8.39527823e-04 3.34073958e-04 -1.12219764e-03
-6.10151296e-04 2.39426487e-04 -1.23017036e-03
-4.89701049e-04 2.48304154e-04 -1.29292547e-03
-4.25944506e-04 3.68570155e-04 -1.23213023e-03
-3.95786828e-04 8.55228721e-04 -1.13285951e-03
-2.29693197e-04 9.31322862e-04 -1.13429779e-03
-3.70703183e-04 9.07825784e-04 -1.22396002e-03
-9.07690024e-05 6.80414485e-04 -1.11284293e-03
-5.36327263e-05 2.19723460e-04 -1.36940596e-03
2.20555536e-05 2.45142364e-04 -1.38025766e-03
5.12435574e-04 1.36223773e-04 -1.22526123e-03
1.75193166e-04 7.39007645e-04 -7.25854523e-04
5.01269786e-04 2.26842672e-04 -1.28491709e-03
5.40078462e-04 7.66553719e-04 -1.09653636e-03
7.41263821e-04 8.39188946e-04 -9.16277689e-04
1.09596352e-03 6.47371876e-04 -7.43725891e-04
-1.11188408e-03 2.45031079e-04 -7.86328830e-04
-1.05246421e-03 2.34020970e-04 -8.55496473e-04
-1.01080414e-03 3.42377681e-04 -9.68853916e-04
-9.18501641e-04 4.17744953e-04 -1.08272267e-03
-8.75074041e-04 5.00430364e-04 -1.12867423e-03
-9.93912097e-04 4.61674574e-04 -1.02435039e-03
-7.82004642e-04 3.94138158e-04 -1.17753868e-03
-5.74812470e-04 3.75338895e-04 -1.28637146e-03
-3.99269236e-04 2.21047261e-04 -1.31884141e-03
-3.98746638e-04 1.30517044e-04 -1.26281019e-03
-1.31854183e-04 2.68385510e-04 -1.38504107e-03
1.04766352e-04 1.96510955e-04 -1.35781488e-03
1.90019636e-04 4.10973484e-04 -1.41486167e-03
2.58373425e-04 3.52362446e-04 -1.39684753e-03
2.61760843e-04 2.72454913e-04 -1.37171934e-03
4.52018207e-04 1.60772391e-04 -1.27123765e-03
4.16457123e-04 3.03550498e-04 -1.34613192e-03
4.17137621e-04 7.27476732e-04 -1.24705322e-03
4.21497463e-04 2.29518005e-04 -1.31708508e-03
5.65412373e-04 1.98065249e-04 -1.24079884e-03
7.99883879e-04 1.21298256e-04 -1.03986676e-03
-1.10028930e-03 3.09846547e-04 -8.37233278e-04
-1.07304745e-03 3.76043155e-04 -9.01997137e-04
-1.07969173e-03 5.85284674e-04 -9.39284055e-04
-8.04721747e-04 2.53754734e-04 -1.11389194e-03
-9.69804906e-04 3.84770142e-04 -1.02738265e-03
-8.51313540e-04 4.17929756e-04 -1.13372427e-03
-5.61272445e-04 2.90767591e-04 -1.27487965e-03
-6.92532613e-04 2.69108749e-04 -1.19658831e-03
-4.28590256e-04 3.76262810e-04 -1.35088740e-03
-3.24433283e-04 2.55467356e-04 -1.35165293e-03
-1.32661422e-04 4.44277970e-04 -1.42452158e-03
-5.33984341e-05 2.99615976e-04 -1.39922939e-03
1.11105000e-04 4.47873943e-04 -1.42360015e-03
3.31789552e-04 3.79145279e-04 -1.38898615e-03
2.62279813e-04 1.92653051e-04 -1.33912364e-03
4.26424422e-04 4.64930781e-04 -1.36956151e-03
4.81396112e-04 3.90968219e-04 -1.33824594e-03
4.07294854e-04 3.81235347e-04 -1.36621927e-03
6.39295833e-04 2.84206679e-04 -1.24435973e-03
7.38137936e-04 1.73682885e-04 -1.12952497e-03
6.80047251e-04 1.14279583e-04 -1.08224018e-03
-1.17513946e-03 4.15976567e-04 -7.65927687e-04
-1.09429920e-03 4.56734627e-04 -8.96877099e-04
-1.05722477e-03 5.07587499e-04 -9.56835303e-04
-9.38284350e-04 4.97345779e-04 -1.08127691e-03
-7.98578415e-04 4.79740895e-04 -1.17529281e-03
-7.11137885e-04 3.48663233e-04 -1.20957534e-03
-6.37990621e-04 3.16318016e-04 -1.24258983e-03
-3.50156168e-04 3.29244661e-04 -1.36746627e-03
-2.79584716e-04 3.62770393e-04 -1.39157343e-03
-3.42388656e-04 1.75100440e-04 -1.31311412e-03
-5.36621953e-05 4.61223994e-04 -1.42772449e-03
-1.26796089e-04 1.90299331e-04 -1.34800352e-03
-4.20184022e-05 3.80248963e-04 -1.41936933e-03
2.84769070e-05 3.25175197e-04 -1.40788823e-03
2.66425784e-04 4.42816895e-04 -1.41010716e-03
3.38481557e-04 2.98683430e-04 -1.36435137e-03
4.17059961e-04 5.45638178e-04 -1.37499248e-03
7.10761163e-04 3.11774291e-04 -1.21456313e-03
7.15491537e-04 2.39696253e-04 -1.18184394e-03
7.88231613e-04 2.50946866e-04 -1.13849407e-03
8.65953940e-04 2.46443713e-04 -1.08119217e-03
-1.18896431e-03 5.03159461e-04 -7.53929713e-04
-1.03132788e-03 6.10675522e-04 -1.00195191e-03
-1.03644694e-03 4.21768270e-04 -9.64368047e-04
-8.26910678e-04 5.60562214e-04 -1.16503440e-03
-6.59705975e-04 4.88220873e-04 -1.25715135e-03
-7.23467435e-04 4.42452214e-04 -1.21624169e-03
-3.56497408e-04 4.16268130e-04 -1.37869939e-03
-2.77062308e-04 4.48021417e-04 -1.40185780e-03
-2.03877293e-04 3.99289879e-04 -1.41162556e-03
-1.24801683e-04 5.29105022e-04 -1.42892586e-03
-4.59711351e-05 5.53468577e-04 -1.43259310e-03
-1.91408984e-04 3.18434393e-04 -1.39844977e-03
2.57871905e-05 4.92867905e-04 -1.42884033e-03
2.49758782e-04 6.07008230e-04 -1.41918993e-03
3.47158364e-05 4.06948427e-04 -1.42273968e-03
3.46328777e-04 4.62237753e-04 -1.39489595e-03
3.37421488e-04 5.39377389e-04 -1.40207328e-03
5.65367342e-04 2.81055633e-04 -1.27637115e-03
7.80450668e-04 3.27087939e-04 -1.17458276e-03
8.48540414e-04 3.15984752e-04 -1.12043614e-03
8.35078773e-04 3.96090223e-04 -1.15476486e-03
-1.17303323e-03 6.43536474e-04 -7.90525958e-04
-1.11370987e-03 5.40967021e-04 -8.79982431e-04
-9.78151809e-04 6.49063257e-04 -1.05363826e-03
-1.01256026e-03 5.36604491e-04 -1.01762421e-03
-7.40738171e-04 5.27174506e-04 -1.21634174e-03
-5.87084449e-04 4.59508431e-04 -1.29227023e-03
-5.06251658e-04 4.14883736e-04 -1.32429528e-03
-4.39008122e-04 4.58610298e-04 -1.35695660e-03
-2.02156269e-04 4.94177942e-04 -1.41805987e-03
-2.90142951e-04 5.28321161e-04 -1.40692341e-03
-2.26894555e-04 5.79134512e-04 -1.42110398e-03
-1.19168463e-04 3.57373309e-04 -1.41328579e-03
1.84978154e-04 4.96851114e-04 -1.42349645e-03
2.60743056e-04 5.27621597e-04 -1.41854325e-03
9.94072451e-05 2.75398664e-04 -1.39009235e-03
2.12975515e-04 7.61277985e-04 -1.40893649e-03
3.26926812e-04 6.21562939e-04 -1.40444123e-03
5.06087302e-04 4.71081067e-04 -1.33839335e-03
6.27244724e-04 3.58215376e-04 -1.27172926e-03
7.70355586e-04 4.07004615e-04 -1.20273405e-03
9.32681219e-04 4.59753814e-04 -1.08829261e-03
-1.15697844e-03 5.63130361e-04 -8.11428959e-04
-1.14114744e-03 4.74851188e-04 -8.24527048e-04
-1.03103195e-03 6.96052532e-04 -9.96269114e-04
-9.01491058e-04 5.88650875e-04 -1.11514545e-03
-7.71572645e-04 6.02943418e-04 -1.20225855e-03
-5.96756323e-04 5.47015428e-04 -1.29375623e-03
-5.22096248e-04 5.00026175e-04 -1.32804846e-03
-3.64152408e-04 4.99043663e-04 -1.38430181e-03
-4.51152006e-04 5.39393283e-04 -1.36028276e-03
-3.80168595e-04 5.81031338e-04 -1.38546613e-03
-1.53221770e-04 6.06686620e-04 -1.43108320e-03
2.65032855e-05 5.88187185e-04 -1.43427034e-03
9.86183132e-05 5.35840084e-04 -1.43038191e-03
1.71064373e-04 5.78535518e-04 -1.42959805e-03
1.78613361e-04 6.63141828e-04 -1.42574216e-03
4.95171666e-04 5.50612937e-04 -1.34535653e-03
4.79158795e-04 6.37092391e-04 -1.35173914e-03
5.53039840e-04 3.61830605e-04 -1.30588381e-03
5.74876183e-04 4.40425528e-04 -1.30783357e-03
8.64649702e-04 4.75203686e-04 -1.14209327e-03
8.33066388e-04 5.57153697e-04 -1.17083766e-03
-1.19187767e-03 7.29663855e-04 -7.56743301e-04
-1.12593840e-03 6.32548832e-04 -8.68631019e-04
-1.08079321e-03 6.64863275e-04 -9.39058637e-04
-9.63021695e-04 5.73839111e-04 -1.06934794e-03
-6.76535327e-04 5.69709252e-04 -1.25377095e-03
-5.31638415e-04 5.84715928e-04 -1.32921441e-03
-5.50670627e-04 6.64626378e-04 -1.31816711e-03
-4.65298554e-04 6.19586232e-04 -1.35851508e-03
-3.96890245e-04 6.62830042e-04 -1.37941080e-03
-3.08754373e-04 6.13143877e-04 -1.40489115e-03
-2.36224803e-04 6.62210279e-04 -1.41738874e-03
-7.42497566e-05 6.30976407e-04 -1.43417231e-03
-1.45836196e-06 6.67344475e-04 -1.43449330e-03
9.90326001e-05 6.30577216e-04 -1.43191125e-03
1.43291056e-04 7.36849902e-04 -1.42243144e-03
4.04784878e-04 6.27033477e-04 -1.37987159e-03
3.39221421e-04 7.02998399e-04 -1.39114997e-03
5.51620317e-04 6.12384796e-04 -1.32471124e-03
6.47703037e-04 4.40464754e-04 -1.27542587e-03
7.99037241e-04 4.83884493e-04 -1.19275229e-03
7.90146442e-04 6.25401953e-04 -1.20074367e-03
-1.15296181e-03 7.14098137e-04 -8.29431482e-04
-1.11210662e-03 7.21266184e-04 -8.94002440e-04
-1.06341858e-03 7.61088949e-04 -9.47384597e-04
-7.90309602e-04 6.82711173e-04 -1.18740512e-03
-7.09435013e-04 6.42208077e-04 -1.23813119e-03
-6.16563399e-04 6.24525611e-04 -1.28656502e-03
-5.84366363e-04 7.31870121e-04 -1.29195440e-03
-4.81211639e-04 6.97497894e-04 -1.34646350e-03
-4.16486466e-04 7.42795490e-04 -1.36376568e-03
-3.24559915e-04 6.93945699e-04 -1.39755195e-03
-2.58547819e-04 7.43006814e-04 -1.40837461e-03
-1.59046427e-04 6.88324277e-04 -1.42625234e-03
-8.30457005e-05 7.16567366e-04 -1.43026517e-03
-1.07853642e-05 7.53156299e-04 -1.42485686e-03
6.87578958e-05 7.08075847e-04 -1.43161938e-03
2.87103531e-04 7.74161701e-04 -1.38999961e-03
3.06274712e-04 8.53439033e-04 -1.36182415e-03
4.20816187e-04 7.08816383e-04 -1.36529439e-03
5.76915671e-04 5.26454649e-04 -1.30968328e-03
7.03558536e-04 3.87126844e-04 -1.23954569e-03
7.54443945e-04 5.48367296e-04 -1.22392536e-03
-1.15602809e-03 7.95920623e-04 -8.06840883e-04
-1.05449887e-03 8.40666474e-04 -9.28142751e-04
-9.73040628e-04 7.29731588e-04 -1.04854487e-03
-8.50480641e-04 6.42593459e-04 -1.15111010e-03
-7.89362893e-04 7.71344375e-04 -1.17482479e-03
-6.52918068e-04 6.93914013e-04 -1.26563691e-03
-6.59173467e-04 7.74523308e-04 -1.24586630e-03
-5.11501038e-04 7.72020957e-04 -1.31896387e-03
-4.39880626e-04 8.15326168e-04 -1.33872854e-03
-3.45514007e-04 7.74465833e-04 -1.38163296e-03
-2.76209635e-04 8.21685225e-04 -1.38967821e-03
-1.84628793e-04 7.65976919e-04 -1.41616315e-03
-1.08699160e-04 7.94022550e-04 -1.41585064e-03
-3.53175779e-05 8.29208709e-04 -1.40896701e-03
6.68503956e-05 7.90507586e-04 -1.41507005e-03
2.21821411e-04 8.45187832e-04 -1.38122421e-03
3.88891372e-04 8.60428028e-04 -1.33863541e-03
3.66941521e-04 7.82986644e-04 -1.36711660e-03
6.24214966e-04 6.04586925e-04 -1.29237584e-03
7.17657322e-04 4.77312017e-04 -1.24061358e-03
7.55838748e-04 7.41449745e-04 -1.21155826e-03
-1.10943541e-03 8.00459804e-04 -8.74458255e-04
-1.03560711e-03 9.15613986e-04 -9.07183981e-04
[...]
POINT_DATA 20213
SCALARS pressure double 1
LOOKUP_TABLE default
5.58188485e+02
6.24434058e+02
0.00000000e+00
0.00000000e+00
0.00000000e+00
0.00000000e+00
8.85579489e+02
9.06468255e+02
1.08981011e+03
1.18120560e+03
1.06748057e+03
1.14757828e+03
1.17983182e+03
0.00000000e+00
0.00000000e+00
5.23079300e+02
2.08635091e+03
0.00000000e+00
1.15242380e+03
1.07256385e+03
6.86500591e+02
0.00000000e+00
7.08535327e+02
0.00000000e+00
6.57627204e+02
0.00000000e+00
0.00000000e+00
0.00000000e+00
7.43503934e+02
0.00000000e+00
6.90261814e+02
7.72634604e+02
0.00000000e+00
4.19481004e+02
0.00000000e+00
0.00000000e+00
0.00000000e+00
0.00000000e+00
1.02306944e+03
0.00000000e+00
6.20220746e+02
3.47096190e+02
7.66173094e+02
9.26469669e+02
6.74463781e+02
7.19433992e+02
7.27039314e+02
0.00000000e+00
0.00000000e+00
0.00000000e+00
9.33559496e+02
9.96285633e+02
1.01866808e+03
0.00000000e+00
0.00000000e+00
0.00000000e+00
0.00000000e+00
0.00000000e+00
8.88372773e+02
0.00000000e+00
7.16787930e+02
0.00000000e+00
3.76580862e+02
0.00000000e+00
0.00000000e+00
7.25715446e+02
0.00000000e+00
5.62360696e+02
0.00000000e+00
6.94668168e+02
1.02879167e+03
0.00000000e+00
0.00000000e+00
9.14099140e+02
0.00000000e+00
8.82884836e+02
0.00000000e+00
0.00000000e+00
0.00000000e+00
0.00000000e+00
0.00000000e+00
0.00000000e+00
0.00000000e+00
0.00000000e+00
0.00000000e+00
0.00000000e+00
7.73924787e+02
6.78256063e+02
0.00000000e+00
0.00000000e+00
0.00000000e+00
0.00000000e+00
9.33240784e+02
9.73011121e+02
9.13692580e+02
0.00000000e+00
0.00000000e+00
8.38070423e+02
0.00000000e+00
0.00000000e+00
0.00000000e+00
8.66838665e+02
0.00000000e+00
2.80704462e+02
0.00000000e+00
5.62766208e+02
7.35237939e+02
7.84553876e+02
0.00000000e+00
0.00000000e+00
0.00000000e+00
0.00000000e+00
9.45968360e+02
8.79427373e+02
0.00000000e+00
0.00000000e+00
9.20177600e+02
0.00000000e+00
0.00000000e+00
0.00000000e+00
9.19487232e+02
0.00000000e+00
0.00000000e+00
0.00000000e+00
0.00000000e+00
6.30385609e+02
6.51278987e+02
7.28553741e+02
6.74877006e+02
7.06058649e+02
0.00000000e+00
7.47217520e+02
7.75056071e+02
8.97242045e+02
8.87940597e+02
8.59895260e+02
9.68419675e+02
7.48264816e+02
0.00000000e+00
6.34851267e+02
7.80656459e+02
0.00000000e+00
0.00000000e+00
8.40072512e+02
0.00000000e+00
5.48416751e+02
0.00000000e+00
0.00000000e+00
7.03964829e+02
0.00000000e+00
0.00000000e+00
0.00000000e+00
8.33698816e+02
7.91510950e+02
0.00000000e+00
0.00000000e+00
8.96446052e+02
9.08107433e+02
9.03217405e+02
0.00000000e+00
0.00000000e+00
0.00000000e+00
0.00000000e+00
0.00000000e+00
7.97638649e+02
0.00000000e+00
0.00000000e+00
0.00000000e+00
0.00000000e+00
0.00000000e+00
7.19803753e+02
7.91063719e+02
0.00000000e+00
0.00000000e+00
8.59180291e+02
7.97048731e+02
0.00000000e+00
0.00000000e+00
0.00000000e+00
9.09428476e+02
0.00000000e+00
0.00000000e+00
0.00000000e+00
9.74724459e+02
8.59696294e+02
0.00000000e+00
7.52546949e+02
6.35351408e+02
0.00000000e+00
0.00000000e+00
0.00000000e+00
8.24360154e+02
8.29376438e+02
7.20959923e+02
0.00000000e+00
8.89111623e+02
0.00000000e+00
0.00000000e+00
0.00000000e+00
8.11811139e+02
0.00000000e+00
0.00000000e+00
0.00000000e+00
0.00000000e+00
9.24823608e+02
0.00000000e+00
0.00000000e+00
7.07775432e+02
0.00000000e+00
0.00000000e+00
0.00000000e+00
0.00000000e+00
0.00000000e+00
0.00000000e+00
7.96356736e+02
7.74392930e+02
9.21680503e+02
9.88102457e+02
1.15114005e+03
1.02864984e+03
5.25271101e+02
1.01280114e+03
0.00000000e+00
0.00000000e+00
0.00000000e+00
8.16081935e+02
8.50767663e+02
0.00000000e+00
9.52206259e+02
0.00000000e+00
5.94052560e+02
0.00000000e+00
0.00000000e+00
5.33646094e+02
0.00000000e+00
0.00000000e+00
6.80761106e+02
9.67376015e+02
1.00325012e+03
1.06059522e+03
1.10168863e+03
1.08100073e+03
0.00000000e+00
0.00000000e+00
0.00000000e+00
6.23644882e+02
8.05708252e+02
0.00000000e+00
7.78432927e+02
0.00000000e+00
0.00000000e+00
0.00000000e+00
0.00000000e+00
6.85700236e+02
0.00000000e+00
0.00000000e+00
0.00000000e+00
0.00000000e+00
0.00000000e+00
9.23116510e+02
9.97410642e+02
0.00000000e+00
0.00000000e+00
0.00000000e+00
0.00000000e+00
7.72380947e+02
0.00000000e+00
6.82786279e+02
8.07045109e+02
0.00000000e+00
8.61680171e+02
9.12006060e+02
0.00000000e+00
0.00000000e+00
0.00000000e+00
0.00000000e+00
0.00000000e+00
0.00000000e+00
0.00000000e+00
0.00000000e+00
7.48612047e+02
1.03094933e+03
8.03742384e+02
7.75098069e+02
0.00000000e+00
0.00000000e+00
0.00000000e+00
6.17291708e+02
0.00000000e+00
0.00000000e+00
0.00000000e+00
0.00000000e+00
8.51481411e+02
8.86604338e+02
9.44537993e+02
7.93734330e+02
0.00000000e+00
0.00000000e+00
0.00000000e+00
0.00000000e+00
0.00000000e+00
7.22073124e+02
1.00625451e+03
8.16518322e+02
6.72866958e+02
5.00451598e+02
0.00000000e+00
5.62579009e+02
0.00000000e+00
0.00000000e+00
0.00000000e+00
0.00000000e+00
0.00000000e+00
9.56553779e+02
8.60226349e+02
1.08439576e+03
1.05960254e+03
0.00000000e+00
0.00000000e+00
0.00000000e+00
0.00000000e+00
0.00000000e+00
0.00000000e+00
0.00000000e+00
0.00000000e+00
6.24472588e+02
0.00000000e+00
0.00000000e+00
4.99262580e+02
0.00000000e+00
5.68856202e+02
0.00000000e+00
0.00000000e+00
5.89971025e+02
0.00000000e+00
9.58512792e+02
1.16891710e+03
0.00000000e+00
0.00000000e+00
0.00000000e+00
0.00000000e+00
0.00000000e+00
0.00000000e+00
0.00000000e+00
0.00000000e+00
0.00000000e+00
0.00000000e+00
0.00000000e+00
0.00000000e+00
0.00000000e+00
0.00000000e+00
0.00000000e+00
0.00000000e+00
4.70991658e+02
0.00000000e+00
5.59462929e+02
0.00000000e+00
1.07389673e+03
0.00000000e+00
0.00000000e+00
0.00000000e+00
0.00000000e+00
0.00000000e+00
0.00000000e+00
0.00000000e+00
0.00000000e+00
4.57958398e+02
0.00000000e+00
0.00000000e+00
0.00000000e+00
0.00000000e+00
4.20429437e+02
0.00000000e+00
0.00000000e+00
0.00000000e+00
0.00000000e+00
0.00000000e+00
7.67204335e+02
1.18502220e+03
9.86806499e+02
0.00000000e+00
0.00000000e+00
0.00000000e+00
0.00000000e+00
0.00000000e+00
5.95780123e+02
4.48977082e+02
0.00000000e+00
0.00000000e+00
0.00000000e+00
0.00000000e+00
0.00000000e+00
0.00000000e+00
0.00000000e+00
0.00000000e+00
0.00000000e+00
0.00000000e+00
0.00000000e+00
0.00000000e+00
9.33122943e+02
5.70279871e+02
0.00000000e+00
4.82316221e+02
0.00000000e+00
0.00000000e+00
0.00000000e+00
6.07949572e+02
5.95521095e+02
0.00000000e+00
0.00000000e+00
0.00000000e+00
0.00000000e+00
0.00000000e+00
8.17744837e+02
9.52703584e+02
0.00000000e+00
7.16746470e+02
0.00000000e+00
0.00000000e+00
0.00000000e+00
8.91937849e+02
0.00000000e+00
0.00000000e+00
0.00000000e+00
6.20970179e+02
0.00000000e+00
0.00000000e+00
6.07990178e+02
8.96096454e+02
0.00000000e+00
9.46458858e+02
7.45404248e+02
9.97866471e+02
0.00000000e+00
9.00024286e+02
1.08668658e+03
9.82896523e+02
7.53950100e+02
0.00000000e+00
0.00000000e+00
0.00000000e+00
0.00000000e+00
0.00000000e+00
8.74121215e+02
0.00000000e+00
6.79601989e+02
7.07556139e+02
1.72977494e+03
6.46201240e+02
9.47254326e+02
1.18171444e+03
1.54459151e+03
1.95795120e+03
1.00243331e+03
7.22426587e+02
5.52147331e+02
1.65762894e+03
0.00000000e+00
9.17416897e+02
8.48167379e+02
4.06450825e+02
0.00000000e+00
0.00000000e+00
1.21616985e+03
1.21551560e+03
1.93171267e+03
3.73487220e+02
1.19536114e+03
8.89421865e+02
1.26970111e+03
1.06208226e+03
1.66437685e+03
2.23666430e+03
2.24072451e+03
1.02041822e+03
2.34944043e+03
2.07803793e+03
1.56826010e+03
1.38512608e+03
1.25802664e+03
1.65717506e+03
1.23458013e+03
0.00000000e+00
0.00000000e+00
1.21794879e+03
1.23968078e+03
1.63091157e+03
9.09969700e+02
1.01466751e+03
2.03775697e+03
1.07374738e+03
6.48385388e+02
1.00908257e+03
9.78560971e+02
7.60704130e+02
7.97362932e+02
0.00000000e+00
1.77367992e+03
7.30667081e+02
1.29348362e+03
6.37473452e+02
1.32674748e+03
7.85549794e+02
0.00000000e+00
0.00000000e+00
1.23002996e+03
2.34730854e+03
1.01778152e+03
1.07227841e+03
1.66591606e+03
3.12733942e+02
1.25236302e+03
9.96225005e+02
7.81101978e+02
1.24012110e+03
1.52554253e+03
2.00429645e+03
1.20273598e+03
7.81538631e+02
6.06972418e+02
1.75113897e+03
1.45841454e+03
9.84678828e+02
1.94099636e+03
0.00000000e+00
0.00000000e+00
1.16479140e+03
1.95666287e+03
1.94754793e+03
2.39743159e+03
1.92649196e+03
1.96681919e+03
5.46267709e+02
6.83190091e+02
1.84542895e+03
1.94803381e+03
2.09823196e+03
1.18154916e+03
8.14835105e+02
3.31298242e+02
2.25611764e+03
9.78292181e+02
9.64553065e+02
1.44046282e+03
4.79743090e+02
0.00000000e+00
0.00000000e+00
1.98080755e+03
9.87378142e+02
8.71344293e+02
1.84640433e+03
0.00000000e+00
2.25568054e+03
1.29485062e+03
5.90785797e+02
5.97462760e+02
2.22046620e+03
4.91749474e+02
1.64982179e+03
1.60423991e+03
1.15399453e+03
8.29107277e+02
1.14186955e+03
9.13902155e+02
7.12321432e+02
1.69140244e+03
0.00000000e+00
0.00000000e+00
1.21657565e+03
1.34341748e+03
1.72159000e+03
1.59164853e+03
3.81426075e+02
1.89045527e+03
1.24468233e+03
6.55850000e+02
1.80231280e+03
4.93995154e+02
1.62459168e+03
2.37800364e+03
1.14512680e+03
1.24763528e+03
1.58996197e+03
1.39602182e+03
5.87945472e+02
6.73849612e+02
6.47550664e+02
0.00000000e+00
0.00000000e+00
9.35912607e+02
7.97045114e+02
1.31034863e+03
1.38059720e+03
1.74781852e+03
1.53676905e+03
2.11246721e+03
1.56136026e+03
1.90078046e+03
1.24052351e+03
8.37351241e+02
1.96695163e+03
1.17347005e+03
1.89644212e+03
2.01714593e+03
5.28489858e+02
7.10837322e+02
5.97050835e+02
5.82666751e+02
0.00000000e+00
4.70740811e+02
2.04240603e+03
0.00000000e+00
1.80264616e+03
9.96580850e+02
1.63497415e+03
1.13864536e+03
1.82563733e+03
1.69333816e+03
1.01235406e+03
1.57642451e+03
2.24786147e+03
6.80396344e+02
1.69417625e+03
7.25172141e+02
7.90582267e+02
2.39148844e+03
2.24184322e+03
0.00000000e+00
1.07191485e+03
7.72023327e+02
0.00000000e+00
2.15149185e+03
0.00000000e+00
1.04864482e+03
7.94704407e+02
6.07199661e+02
6.98909529e+02
7.98583996e+02
1.79373780e+03
8.69076769e+02
8.97559854e+02
8.71182629e+02
2.29242048e+03
8.77387907e+02
5.41399492e+02
9.87677365e+02
6.43388442e+02
1.05286718e+03
9.25278176e+02
5.70264706e+02
0.00000000e+00
0.00000000e+00
1.74338275e+03
0.00000000e+00
1.06451826e+03
5.98695458e+02
9.21245378e+02
9.06378537e+02
1.53941484e+03
1.54380795e+03
1.81764662e+03
9.24478112e+02
1.99336436e+03
8.75290027e+02
1.97741278e+03
9.98410565e+02
9.82339777e+02
1.72493571e+03
2.21521102e+03
8.24459876e+02
1.29250987e+03
8.89481707e+02
0.00000000e+00
1.13187877e+03
6.63800490e+02
7.68429652e+02
4.69742377e+02
7.13000132e+02
1.20378217e+03
7.19509614e+02
2.33333237e+03
1.47895601e+03
2.05194420e+03
1.33081373e+03
1.64363899e+03
4.93105468e+02
1.62410956e+03
1.18303021e+03
8.96989463e+02
9.29534000e+02
9.55606127e+02
6.97985307e+02
8.09978354e+02
0.00000000e+00
1.75211852e+03
7.01171307e+02
1.66775623e+03
1.65838246e+03
5.40316962e+02
1.18301397e+03
1.78415962e+03
2.05740907e+03
1.11720468e+03
1.43122695e+03
2.21775243e+03
4.73992510e+02
2.48362965e+03
1.23698235e+03
1.40037719e+03
1.19180270e+03
2.27132369e+03
9.75638646e+02
2.01850510e+03
0.00000000e+00
8.20206148e+02
8.88678714e+02
6.22135578e+02
1.37456578e+03
6.83928429e+02
7.80287126e+02
1.36303788e+03
1.30987320e+03
1.69649011e+03
9.58334286e+02
1.02372938e+03
8.92637964e+02
1.11432320e+03
5.75737523e+02
7.14066424e+02
1.28086083e+03
1.38627914e+03
1.44934447e+03
8.23992821e+02
6.43705259e+02
0.00000000e+00
1.08645714e+03
9.61588070e+02
1.10424672e+03
1.26292767e+03
1.43052678e+03
1.20127045e+03
1.60702250e+03
2.14713308e+03
1.82107260e+03
1.02088516e+03
2.14050298e+03
9.87547747e+02
7.42290257e+02
8.16168817e+02
1.25479090e+03
1.42664574e+03
1.88681733e+03
1.20794149e+03
1.24115018e+03
6.76015487e+02
7.19739369e+02
1.20719706e+03
1.17402697e+03
1.33102608e+03
8.73105543e+02
9.58162370e+02
0.00000000e+00
1.21689222e+03
1.08455253e+03
1.02618100e+03
1.14850992e+03
1.28366422e+03
1.85680616e+03
1.23666092e+03
9.74772096e+02
1.37704248e+03
0.00000000e+00
1.63773211e+03
1.31708132e+03
1.49762677e+03
1.16445372e+03
7.82372027e+02
1.07372932e+03
1.43161577e+03
1.60125369e+03
1.06170224e+03
2.14375990e+03
1.18657134e+03
1.31545674e+03
7.28823186e+02
1.66181333e+03
1.12613921e+03
1.27563910e+03
1.11945462e+03
1.36725786e+03
1.31335228e+03
2.55774467e+03
1.02243153e+03
2.38814305e+03
1.38708406e+03
1.63983892e+03
1.28818583e+03
0.00000000e+00
1.05325331e+03
1.14912663e+03
1.11894882e+03
1.48485826e+03
1.16893125e+03
1.63109578e+03
1.32387601e+03
1.26876136e+03
1.48722001e+03
1.05923555e+03
1.29874363e+03
1.09482926e+03
1.90803363e+03
1.75807920e+03
1.38013817e+03
1.40346707e+03
1.43071796e+03
1.46543847e+03
1.38467276e+03
1.39393953e+03
0.00000000e+00
1.02089047e+03
1.27096978e+03
1.12250094e+03
1.21426107e+03
1.72527903e+03
1.38673989e+03
1.18601690e+03
0.00000000e+00
0.00000000e+00
0.00000000e+00
0.00000000e+00
0.00000000e+00
0.00000000e+00
0.00000000e+00
1.42676897e+03
1.35349420e+03
1.42208420e+03
1.31492565e+03
1.27352185e+03
1.42879339e+03
0.00000000e+00
1.07078236e+03
2.18613851e+03
1.00334488e+03
1.43579761e+03
1.11317090e+03
1.38705315e+03
1.29650902e+03
1.23914823e+03
1.28138245e+03
1.04358105e+03
1.75981489e+03
1.19681130e+03
2.19116968e+03
9.74901603e+02
1.03950710e+03
1.26326173e+03
1.09396770e+03
1.32244793e+03
1.36851643e+03
2.03156612e+03
0.00000000e+00
9.93550489e+02
8.12858580e+02
0.00000000e+00
0.00000000e+00
6.90734687e+02
0.00000000e+00
0.00000000e+00
0.00000000e+00
1.04076494e+03
9.71740711e+02
9.36502285e+02
8.70111874e+02
0.00000000e+00
1.13862940e+03
1.39392415e+03
1.22073811e+03
1.23404995e+03
0.00000000e+00
0.00000000e+00
0.00000000e+00
6.11944912e+02
0.00000000e+00
4.28166759e+02
5.98423784e+02
6.67231069e+02
5.66587135e+02
0.00000000e+00
0.00000000e+00
9.35755478e+02
0.00000000e+00
4.02204891e+02
5.40405894e+02
1.18745841e+03
6.18595251e+02
0.00000000e+00
9.53212044e+02
0.00000000e+00
6.85995484e+02
5.04158567e+02
3.38705185e+02
0.00000000e+00
0.00000000e+00
0.00000000e+00
1.54481294e+03
1.28207623e+03
1.24202927e+03
1.03248537e+03
1.09824986e+03
9.03435674e+02
6.33989357e+02
2.13174731e+03
8.31529178e+02
1.13345414e+03
1.21757290e+03
7.94536945e+02
0.00000000e+00
6.72179482e+02
1.72199943e+03
2.09530419e+03
1.92903791e+03
1.30484885e+03
4.64532423e+02
0.00000000e+00
0.00000000e+00
1.13694443e+03
1.85356454e+03
2.27276009e+03
1.90436855e+03
2.10072742e+03
2.36542209e+03
9.33332436e+02
1.04084050e+03
1.75562161e+03
5.93959861e+02
1.13214220e+03
9.85485287e+02
1.38554308e+03
1.39801311e+03
2.21768870e+03
8.81075174e+02
1.02921813e+03
6.23496372e+02
1.49316323e+03
0.00000000e+00
0.00000000e+00
1.13861332e+03
1.93723819e+03
9.81238410e+02
1.94492308e+03
7.86915841e+02
1.81379274e+03
1.55035763e+03
1.07298284e+03
8.16500672e+02
6.45003807e+02
1.68499630e+03
1.78541738e+03
6.90888288e+02
1.88914294e+03
1.21268159e+03
1.28756889e+03
1.68518037e+03
1.10918629e+03
1.64906212e+03
0.00000000e+00
0.00000000e+00
1.22453898e+03
8.13024017e+02
1.13235367e+03
1.79252831e+03
2.04649800e+03
1.07981412e+03
1.63994276e+03
9.90832137e+02
1.52775018e+03
1.39125430e+03
5.24146792e+02
1.07171714e+03
1.88592569e+03
8.92821465e+02
1.05146979e+03
1.70779134e+03
1.03103203e+03
2.20297154e+03
1.68386393e+03
0.00000000e+00
0.00000000e+00
1.22047678e+03
6.82924129e+02
1.40098934e+03
2.24736544e+03
1.39785936e+03
9.77009569e+02
1.94067969e+03
8.25731338e+02
1.88855844e+03
6.67701063e+02
1.55827907e+03
5.09686549e+02
0.00000000e+00
2.02540007e+03
1.47377196e+03
1.51633237e+03
7.92260072e+02
1.43446238e+03
1.13367129e+03
3.75490791e+02
0.00000000e+00
1.33502796e+03
1.63177760e+03
1.37695549e+03
9.70394832e+02
1.49840278e+03
1.25274757e+03
1.62828682e+03
8.91905094e+02
2.23854862e+03
1.00748817e+03
8.73086681e+02
8.59572397e+02
9.35718705e+02
1.93286033e+03
1.47401969e+03
1.90565246e+03
2.30445819e+03
1.09509290e+03
8.49764587e+02
7.29908227e+02
0.00000000e+00
0.00000000e+00
2.38564461e+03
2.06111866e+03
1.97505283e+03
1.76456718e+03
4.75510832e+02
6.21607113e+02
1.08649461e+03
1.82221824e+03
2.26717147e+03
1.47706202e+03
1.83398816e+03
2.05888682e+03
2.34899197e+03
1.19839041e+03
2.12716052e+03
2.26453657e+03
1.97441295e+03
5.20211732e+02
0.00000000e+00
0.00000000e+00
5.15030465e+02
9.54033786e+02
9.81611253e+02
2.01706608e+03
1.70790279e+03
2.37374546e+03
1.35063966e+03
1.55031529e+03
1.21869933e+03
2.13500607e+03
1.49177120e+03
1.33454879e+03
6.88367945e+02
1.89222852e+03
9.00196567e+02
2.20006461e+03
1.67975323e+03
9.82877485e+02
7.94806245e+02
0.00000000e+00
0.00000000e+00
0.00000000e+00
2.00883071e+03
6.17129004e+02
2.13198967e+03
2.34069248e+03
2.22472271e+03
5.76413159e+02
1.07443005e+03
1.62970251e+03
1.02401333e+03
1.19115328e+03
1.37151216e+03
9.45813647e+02
1.63654048e+03
7.20089790e+02
1.32013070e+03
8.60266727e+02
7.87640848e+02
7.87786128e+02
7.39257178e+02
6.80958829e+02
6.02379770e+02
2.00903229e+03
6.72244570e+02
2.02901411e+03
9.84377511e+02
1.61375338e+03
1.26584164e+03
2.51470739e+03
2.12909392e+03
1.40535351e+03
2.37743239e+03
6.53076934e+02
2.39578858e+03
1.87567805e+03
8.79001619e+02
1.94019076e+03
1.01890922e+03
1.62336542e+03
8.08526250e+02
0.00000000e+00
0.00000000e+00
5.25628299e+02
2.22277596e+03
8.85928295e+02
1.88223815e+03
5.53844593e+02
1.48544039e+03
1.03085215e+03
2.42557276e+03
9.02888254e+02
1.05183200e+03
1.35785554e+03
1.21942908e+03
8.49291957e+02
1.38444315e+03
1.40428702e+03
1.29232635e+03
1.37918228e+03
2.27631101e+03
8.15848721e+02
7.53064860e+02
0.00000000e+00
0.00000000e+00
1.31080565e+03
1.06914029e+03
1.33343432e+03
6.69869333e+02
1.78358594e+03
2.28680531e+03
1.29242809e+03
2.21285852e+03
1.21524284e+03
2.07826602e+03
9.77895775e+02
2.23142865e+03
5.63006746e+02
2.38531159e+03
2.29354387e+03
1.37601051e+03
2.17667083e+03
8.84087544e+02
0.00000000e+00
1.05906799e+03
0.00000000e+00
2.35095099e+03
1.33812839e+03
1.68791853e+03
1.53053617e+03
1.57015408e+03
1.44774787e+03
1.52612752e+03
1.88508861e+03
1.10126812e+03
2.29605812e+03
2.10508053e+03
2.35468871e+03
1.19079153e+03
1.34114662e+03
2.50089556e+03
1.64894861e+03
1.15450559e+03
9.80246384e+02
0.00000000e+00
1.07517784e+03
2.03594578e+03
2.14110205e+03
1.75369364e+03
2.27172899e+03
2.06828669e+03
1.34806834e+03
8.99730456e+02
1.98990247e+03
1.76669790e+03
1.48247833e+03
2.15389056e+03
1.04825716e+03
1.22398731e+03
2.29892416e+03
2.27992822e+03
9.50553596e+02
1.71650058e+03
2.05109661e+03
9.30074971e+02
0.00000000e+00
1.18829537e+03
1.63845262e+03
2.45593029e+03
1.83377242e+03
1.59915823e+03
1.11807291e+03
2.25289009e+03
1.25792640e+03
2.51175390e+03
1.71032886e+03
9.54040335e+02
1.81814077e+03
1.69300787e+03
1.36559324e+03
1.61845676e+03
1.93419123e+03
1.88802096e+03
1.67993464e+03
1.47210807e+03
1.32867653e+03
0.00000000e+00
0.00000000e+00
2.28908468e+03
0.00000000e+00
2.54091200e+03
9.29198811e+02
1.02148822e+03
9.82363780e+02
1.32134311e+03
1.60061363e+03
2.35115203e+03
7.91412144e+02
1.42634190e+03
6.21005438e+02
1.21787434e+03
1.66100272e+03
5.50565826e+02
2.46460992e+03
2.14519568e+03
1.89281529e+03
1.36950423e+03
0.00000000e+00
0.00000000e+00
1.25130357e+03
1.64973778e+03
1.27710190e+03
9.81731098e+02
2.18370204e+03
2.25091375e+03
1.62430926e+03
1.30330640e+03
1.17900576e+03
1.20337859e+03
1.18233320e+03
1.38163741e+03
1.22864340e+03
1.53371612e+03
2.42932545e+03
2.11466231e+03
1.79696675e+03
1.54007047e+03
1.37904321e+03
0.00000000e+00
1.02990866e+03
1.23052569e+03
2.19901433e+03
1.88905045e+03
1.60319262e+03
1.22081501e+03
1.42636695e+03
1.92079237e+03
1.42376035e+03
1.41705947e+03
1.04757597e+03
2.54030922e+03
1.47125815e+03
1.46978773e+03
1.44354800e+03
2.00533881e+03
2.32796663e+03
2.44694141e+03
1.21964650e+03
1.55200490e+03
5.43550489e+02
7.88303595e+02
1.28268033e+03
1.18153603e+03
1.88804783e+03
2.29428070e+03
1.84858221e+03
1.48720993e+03
0.00000000e+00
0.00000000e+00
0.00000000e+00
0.00000000e+00
0.00000000e+00
9.00797219e+02
9.88230845e+02
1.30599797e+03
1.19101032e+03
1.40728856e+03
1.20707351e+03
1.93210894e+03
1.29210527e+03
0.00000000e+00
0.00000000e+00
9.56039983e+02
0.00000000e+00
9.34082299e+02
8.84673919e+02
0.00000000e+00
0.00000000e+00
0.00000000e+00
0.00000000e+00
1.08760836e+03
0.00000000e+00
1.05594731e+03
1.21421464e+03
1.23372509e+03
1.37419053e+03
1.34217554e+03
1.33254084e+03
0.00000000e+00
7.65815287e+02
6.85593238e+02
0.00000000e+00
5.28171839e+02
8.35975247e+02
0.00000000e+00
2.16195255e+03
1.02655270e+03
1.17913197e+03