# vtk DataFile Version 3.0
MPS 3D Simulation Step 8000
ASCII
DATASET UNSTRUCTURED_GRID
POINTS 20213 double
-1.14980661e-03 3.34176058e-04 -8.03034926e-04
-1.04044672e-03 1.33647506e-04 -8.10255836e-04
-9.44224991e-04 2.92609012e-04 -1.02244962e-03
-8.98792847e-04 3.45885383e-04 -1.07940076e-03
-8.54041575e-04 1.94925956e-04 -1.05604541e-03
-8.38078379e-04 3.71117200e-04 -1.13305772e-03
-6.21852434e-04 2.35934858e-04 -1.22935383e-03
-4.84945960e-04 2.19158830e-04 -1.27638887e-03
-4.48835569e-04 3.27725104e-04 -1.22129861e-03
-4.14904482e-04 8.11153258e-04 -1.11371526e-03
-2.33649410e-04 8.93418467e-04 -1.14339746e-03
-3.39832986e-04 8.78554310e-04 -1.23503552e-03
-1.00031834e-04 6.86691572e-04 -1.11870917e-03
-4.74565385e-05 2.00102154e-04 -1.37322234e-03
2.80681306e-05 2.28619854e-04 -1.38639005e-03
5.42342736e-04 1.48686836e-04 -1.22492921e-03
2.21001141e-04 6.96116098e-04 -8.16890821e-04
5.24702742e-04 2.24276350e-04 -1.28183060e-03
5.44775861e-04 7.56567587e-04 -1.09331680e-03
7.73848820e-04 8.51152402e-04 -9.13123641e-04
1.09331826e-03 5.88081934e-04 -7.72325279e-04
-1.07958431e-03 2.07895097e-04 -8.31500111e-04
-1.04003381e-03 2.28165370e-04 -9.00096899e-04
-1.00778834e-03 3.39697269e-04 -9.79505274e-04
-9.02685205e-04 4.30293757e-04 -1.08798715e-03
-8.53239081e-04 5.36698063e-04 -1.13620045e-03
-9.69033380e-04 4.76930484e-04 -1.03058757e-03
-7.79570580e-04 4.08208314e-04 -1.18576247e-03
-5.72456400e-04 3.56554790e-04 -1.29475690e-03
-3.76988988e-04 1.92827046e-04 -1.30105495e-03
-3.44971244e-04 1.20064016e-04 -1.23640603e-03
-1.10958141e-04 2.49609989e-04 -1.39067314e-03
1.13814860e-04 1.88334784e-04 -1.36340622e-03
1.76908051e-04 3.92192569e-04 -1.42958230e-03
2.53846867e-04 3.44512326e-04 -1.40986297e-03
2.71956255e-04 2.68707135e-04 -1.38083566e-03
4.77141240e-04 1.62319528e-04 -1.27024812e-03
4.24230443e-04 2.95945750e-04 -1.34941364e-03
4.35242885e-04 7.01624101e-04 -1.26653825e-03
4.35390153e-04 2.20731115e-04 -1.31524824e-03
5.96342209e-04 2.10555675e-04 -1.24056092e-03
8.38663130e-04 1.32202748e-04 -1.04076460e-03
-1.10266932e-03 2.88588772e-04 -8.49578149e-04
-1.06164971e-03 3.79033096e-04 -9.29767245e-04
-1.05815927e-03 5.91951821e-04 -9.50095205e-04
-8.26069892e-04 2.86525519e-04 -1.11905291e-03
-9.59313673e-04 3.83007803e-04 -1.03127652e-03
-8.41901868e-04 4.53866574e-04 -1.14118889e-03
-5.63589075e-04 2.70532185e-04 -1.27126076e-03
-6.88492998e-04 2.77337468e-04 -1.20902177e-03
-4.37924363e-04 3.48004687e-04 -1.33960769e-03
-3.28889537e-04 2.48332729e-04 -1.34165594e-03
-1.53795922e-04 4.06324224e-04 -1.42383897e-03
-3.86782134e-05 2.81847258e-04 -1.40522254e-03
1.20546702e-04 4.52434266e-04 -1.44232659e-03
3.32718014e-04 3.36335689e-04 -1.38887156e-03
2.71760773e-04 1.96130400e-04 -1.35104184e-03
4.16195166e-04 4.48602264e-04 -1.38534476e-03
4.83540920e-04 3.71528462e-04 -1.34744124e-03
4.03866958e-04 3.69156644e-04 -1.37756988e-03
6.57819549e-04 2.76243811e-04 -1.23928899e-03
7.48595977e-04 1.96555125e-04 -1.14991513e-03
7.67772281e-04 1.34516799e-04 -1.09030555e-03
-1.17033104e-03 4.10225284e-04 -7.90880349e-04
-1.08168353e-03 4.56908007e-04 -9.12647408e-04
-1.03911633e-03 5.12601426e-04 -9.65585431e-04
-9.12975313e-04 5.14501984e-04 -1.08292212e-03
-7.87762659e-04 4.98184389e-04 -1.18762328e-03
-7.19509840e-04 3.55689119e-04 -1.21907377e-03
-6.36799434e-04 3.24438001e-04 -1.25804574e-03
-3.66186785e-04 3.18338820e-04 -1.35538631e-03
-2.93692960e-04 3.45327229e-04 -1.38433183e-03
-3.03511604e-04 1.59710296e-04 -1.30898641e-03
-7.56235031e-05 4.30613552e-04 -1.43691398e-03
-1.24232511e-04 1.66675014e-04 -1.35111201e-03
-2.13153673e-05 3.66823233e-04 -1.42725911e-03
4.24818609e-05 3.07396032e-04 -1.41478181e-03
2.54912802e-04 4.22439432e-04 -1.42493395e-03
3.54377009e-04 2.58168912e-04 -1.35799532e-03
4.51370546e-04 5.29377627e-04 -1.38210183e-03
7.14567258e-04 3.46748779e-04 -1.22832336e-03
7.25730407e-04 2.62502303e-04 -1.19536850e-03
8.01804768e-04 2.53430741e-04 -1.14330247e-03
8.84604485e-04 2.66025404e-04 -1.08710251e-03
-1.18505995e-03 4.89766713e-04 -7.74205696e-04
-1.01129557e-03 6.38837093e-04 -1.00436847e-03
-1.01819362e-03 4.30368550e-04 -9.79801008e-04
-7.95472203e-04 5.83420931e-04 -1.17851504e-03
-6.55294303e-04 4.91374400e-04 -1.27259405e-03
-7.23681658e-04 4.50981394e-04 -1.22961319e-03
-3.62606867e-04 4.04020738e-04 -1.37390801e-03
-2.91503990e-04 4.39720723e-04 -1.40045571e-03
-2.26990608e-04 3.78338699e-04 -1.40810975e-03
-1.34044478e-04 4.96065517e-04 -1.43867340e-03
-5.72334945e-05 5.31498281e-04 -1.44908583e-03
-1.77347313e-04 3.06134147e-04 -1.39839421e-03
-2.48157224e-06 4.68912250e-04 -1.44501230e-03
2.29848004e-04 5.70169782e-04 -1.43960050e-03
5.10525100e-05 4.07448562e-04 -1.43683710e-03
3.32922587e-04 4.28801205e-04 -1.40582845e-03
3.68230905e-04 5.15351191e-04 -1.40835709e-03
5.80951401e-04 2.89820957e-04 -1.28196816e-03
7.83384941e-04 3.27221434e-04 -1.18118559e-03
8.52596945e-04 3.21633009e-04 -1.13195245e-03
8.38843652e-04 4.00651105e-04 -1.15596184e-03
-1.19265545e-03 6.12179917e-04 -7.72163209e-04
-1.10011800e-03 5.37688843e-04 -8.95135695e-04
-9.53950139e-04 6.70352317e-04 -1.05478318e-03
-9.93288568e-04 5.57115121e-04 -1.01609686e-03
-7.24885300e-04 5.37061852e-04 -1.23105636e-03
-5.92906581e-04 4.35738714e-04 -1.29926204e-03
-5.07619152e-04 3.93472543e-04 -1.32534064e-03
-4.39630949e-04 4.38718951e-04 -1.35343072e-03
-2.14819494e-04 4.68182283e-04 -1.42340226e-03
-2.88334725e-04 5.25393521e-04 -1.41285105e-03
-2.12791709e-04 5.52527036e-04 -1.43311749e-03
-1.04264651e-04 3.38963210e-04 -1.41666137e-03
1.99084151e-04 4.86086419e-04 -1.43970860e-03
2.86126314e-04 5.05370250e-04 -1.42669865e-03
1.11382391e-04 2.63025268e-04 -1.39883398e-03
2.49781096e-04 7.33656683e-04 -1.41980591e-03
3.16362148e-04 5.86828879e-04 -1.42287847e-03
4.95799867e-04 4.52551669e-04 -1.35622928e-03
6.41587381e-04 3.49939944e-04 -1.27112643e-03
7.73259634e-04 4.13912345e-04 -1.20274723e-03
9.45052326e-04 4.58608642e-04 -1.08056881e-03
-1.15298227e-03 5.56422397e-04 -8.24457890e-04
-1.13400201e-03 4.68899192e-04 -8.45431808e-04
-1.01474702e-03 7.16416074e-04 -9.94228313e-04
-8.78616626e-04 6.12906040e-04 -1.11545956e-03
-7.31751333e-04 6.19658563e-04 -1.21986766e-03
-5.85881284e-04 5.28183119e-04 -1.30597397e-03
-5.21491864e-04 4.76547989e-04 -1.32889388e-03
-3.64920421e-04 4.89576897e-04 -1.38433390e-03
-4.43939510e-04 5.21840878e-04 -1.35918512e-03
-3.66603339e-04 5.70680015e-04 -1.39079517e-03
-1.32150634e-04 5.84387504e-04 -1.44633332e-03
1.22198940e-05 5.78045661e-04 -1.45580505e-03
6.63652575e-05 5.15396353e-04 -1.45097856e-03
1.44062067e-04 5.47052738e-04 -1.45028659e-03
1.70728753e-04 6.32841096e-04 -1.44542279e-03
5.29137442e-04 5.34486383e-04 -1.35059198e-03
4.78117548e-04 6.08927518e-04 -1.37197097e-03
5.61906087e-04 3.69246172e-04 -1.31274218e-03
5.70056154e-04 4.53148249e-04 -1.32286791e-03
8.76659953e-04 4.77123458e-04 -1.13331552e-03
8.42044448e-04 5.65952033e-04 -1.15998069e-03
-1.19957474e-03 7.00873513e-04 -7.50518120e-04
-1.11413743e-03 6.18129797e-04 -8.82461185e-04
-1.06915218e-03 6.71465210e-04 -9.38431519e-04
-9.39357173e-04 5.88865213e-04 -1.06755104e-03
-6.62103145e-04 5.77673337e-04 -1.26787327e-03
-5.15211491e-04 5.64940215e-04 -1.33481877e-03
-5.23670645e-04 6.47563266e-04 -1.32694999e-03
-4.42368813e-04 6.06104380e-04 -1.36082571e-03
-3.67812844e-04 6.50345450e-04 -1.38776132e-03
-2.89018397e-04 6.05382568e-04 -1.41504162e-03
-2.08814295e-04 6.32512204e-04 -1.43434673e-03
-5.98000585e-05 6.19949948e-04 -1.45313821e-03
1.55414398e-05 6.66957951e-04 -1.45369248e-03
8.70951590e-05 6.11753955e-04 -1.45417102e-03
1.75483188e-04 7.15422898e-04 -1.43628924e-03
3.96343984e-04 5.98196773e-04 -1.40148413e-03
3.37750788e-04 6.67637662e-04 -1.41095017e-03
5.59484271e-04 6.14001065e-04 -1.33852632e-03
6.37890220e-04 4.30593192e-04 -1.28846429e-03
8.06813999e-04 4.90361618e-04 -1.18369839e-03
8.12488099e-04 6.53787902e-04 -1.18289322e-03
-1.15755732e-03 6.56476025e-04 -8.23184570e-04
-1.11644895e-03 7.07968430e-04 -8.73386429e-04
-1.06679159e-03 7.53663796e-04 -9.29498217e-04
-7.58648104e-04 6.93332563e-04 -1.19089129e-03
-6.69619798e-04 6.60332403e-04 -1.25350449e-03
-5.93399901e-04 6.11907436e-04 -1.29989980e-03
-5.40906717e-04 7.28228292e-04 -1.30854617e-03
-4.58835457e-04 6.86845150e-04 -1.35064736e-03
-3.91145652e-04 7.23373932e-04 -1.37126707e-03
-2.96007562e-04 6.87562754e-04 -1.40774238e-03
-2.22347996e-04 7.12868191e-04 -1.42410585e-03
-1.34709492e-04 6.73205333e-04 -1.44308711e-03
-5.71171621e-05 7.06937180e-04 -1.44720187e-03
1.92978013e-05 7.51513724e-04 -1.44136923e-03
9.59623056e-05 6.94618627e-04 -1.44759060e-03
3.23956400e-04 7.47206803e-04 -1.40215161e-03
3.40704754e-04 8.25704891e-04 -1.37385133e-03
4.24554493e-04 6.75416937e-04 -1.38580901e-03
6.05499934e-04 5.29592311e-04 -1.31546719e-03
7.07656910e-04 4.32918050e-04 -1.24798557e-03
7.74512047e-04 5.84029273e-04 -1.21263927e-03
-1.15750572e-03 7.45999808e-04 -8.07051543e-04
-1.05546460e-03 8.36913252e-04 -9.11745996e-04
-9.57476202e-04 7.51206747e-04 -1.04047337e-03
-8.22278406e-04 6.57366563e-04 -1.15293095e-03
-7.61040667e-04 7.79011483e-04 -1.17169794e-03
-6.06069222e-04 6.92794886e-04 -1.28337226e-03
-6.26331522e-04 7.66789355e-04 -1.25524095e-03
-4.73932780e-04 7.70469883e-04 -1.32711000e-03
-4.02208199e-04 8.02663291e-04 -1.34901606e-03
-3.21268690e-04 7.63998430e-04 -1.38647889e-03
-2.46079905e-04 7.88894335e-04 -1.40199707e-03
-1.53892774e-04 7.54869890e-04 -1.43004796e-03
-8.05167765e-05 7.83781151e-04 -1.43225760e-03
-1.24596271e-05 8.25367344e-04 -1.42499799e-03
1.02496087e-04 7.76135800e-04 -1.43185677e-03
2.57905421e-04 8.18836187e-04 -1.39547687e-03
4.25378595e-04 8.31253471e-04 -1.34751196e-03
4.00610779e-04 7.51766221e-04 -1.37911674e-03
6.34357105e-04 6.04857948e-04 -1.30259588e-03
7.43203931e-04 5.10744441e-04 -1.23185894e-03
7.84640209e-04 7.35525283e-04 -1.19847681e-03
-1.11023306e-03 7.94995611e-04 -8.62275076e-04
-1.03351243e-03 9.25665073e-04 -8.89543316e-04
[...]
POINT_DATA 20213
SCALARS pressure double 1
LOOKUP_TABLE default
1.47945134e+03
1.08375538e+03
9.31304340e+02
0.00000000e+00
0.00000000e+00
9.48741407e+02
0.00000000e+00
1.08279508e+03
1.18279724e+03
1.08587459e+03
1.20887609e+03
9.78046621e+02
1.64179751e+03
0.00000000e+00
0.00000000e+00
8.25063682e+02
2.36793303e+03
8.91263804e+02
1.03935702e+03
8.86028343e+02
8.82330504e+02
0.00000000e+00
1.27844362e+03
0.00000000e+00
9.94781035e+02
8.70792011e+02
7.69846276e+02
0.00000000e+00
0.00000000e+00
9.79687765e+02
8.55772822e+02
0.00000000e+00
0.00000000e+00
9.56284944e+02
0.00000000e+00
9.43439501e+02
0.00000000e+00
1.06532587e+03
1.02510397e+03
9.54841420e+02
0.00000000e+00
6.11271468e+02
1.32484108e+03
0.00000000e+00
0.00000000e+00
0.00000000e+00
9.28799136e+02
1.02683852e+03
0.00000000e+00
0.00000000e+00
1.05469492e+03
1.04137496e+03
1.40856764e+03
0.00000000e+00
0.00000000e+00
1.09096785e+03
9.26124129e+02
7.90822867e+02
1.01145810e+03
0.00000000e+00
0.00000000e+00
0.00000000e+00
0.00000000e+00
1.29923265e+03
0.00000000e+00
6.46773393e+02
8.69840933e+02
0.00000000e+00
0.00000000e+00
0.00000000e+00
0.00000000e+00
1.17771891e+03
0.00000000e+00
1.39095514e+03
0.00000000e+00
1.25461991e+03
0.00000000e+00
8.89422792e+02
1.06489702e+03
0.00000000e+00
8.44213421e+02
7.32592890e+02
6.81588754e+02
0.00000000e+00
9.36565457e+02
0.00000000e+00
0.00000000e+00
0.00000000e+00
0.00000000e+00
0.00000000e+00
1.09112223e+03
1.10157931e+03
1.33944555e+03
1.26867002e+03
1.34865755e+03
1.27824654e+03
1.25635401e+03
0.00000000e+00
1.19327114e+03
8.33402661e+02
0.00000000e+00
0.00000000e+00
7.74083957e+02
0.00000000e+00
5.06982591e+02
0.00000000e+00
0.00000000e+00
0.00000000e+00
0.00000000e+00
0.00000000e+00
0.00000000e+00
0.00000000e+00
0.00000000e+00
1.25963148e+03
0.00000000e+00
1.08667544e+03
1.29604017e+03
1.04446383e+03
0.00000000e+00
0.00000000e+00
1.20210618e+03
9.22997994e+02
0.00000000e+00
7.95760660e+02
0.00000000e+00
0.00000000e+00
0.00000000e+00
0.00000000e+00
7.23356454e+02
9.14965686e+02
0.00000000e+00
0.00000000e+00
0.00000000e+00
8.09020831e+02
7.98996399e+02
0.00000000e+00
0.00000000e+00
0.00000000e+00
1.12148139e+03
1.17345150e+03
1.09411178e+03
7.19138780e+02
0.00000000e+00
9.77088195e+02
7.50472618e+02
0.00000000e+00
6.34447939e+02
0.00000000e+00
0.00000000e+00
0.00000000e+00
0.00000000e+00
0.00000000e+00
7.25564323e+02
5.43322159e+02
6.24393117e+02
0.00000000e+00
0.00000000e+00
1.05605502e+03
1.20320056e+03
1.04376428e+03
1.07511949e+03
1.11803962e+03
0.00000000e+00
1.00354538e+03
7.24019701e+02
0.00000000e+00
0.00000000e+00
0.00000000e+00
0.00000000e+00
0.00000000e+00
0.00000000e+00
9.36985960e+02
0.00000000e+00
0.00000000e+00
0.00000000e+00
0.00000000e+00
0.00000000e+00
0.00000000e+00
1.09825524e+03
1.20299446e+03
0.00000000e+00
0.00000000e+00
0.00000000e+00
0.00000000e+00
1.04162780e+03
0.00000000e+00
0.00000000e+00
0.00000000e+00
0.00000000e+00
0.00000000e+00
0.00000000e+00
9.19527884e+02
1.00429732e+03
1.01760647e+03
0.00000000e+00
0.00000000e+00
0.00000000e+00
7.67884155e+02
0.00000000e+00
1.23622976e+03
1.21799242e+03
1.21338866e+03
9.31095334e+02
9.00368712e+02
1.09022637e+03
8.87043369e+02
0.00000000e+00
0.00000000e+00
0.00000000e+00
0.00000000e+00
0.00000000e+00
8.72246024e+02
1.01741642e+03
1.01624499e+03
7.80654296e+02
7.70703736e+02
0.00000000e+00
0.00000000e+00
0.00000000e+00
9.42681538e+02
5.97783637e+02
1.11531464e+03
1.25421471e+03
0.00000000e+00
0.00000000e+00
9.23052546e+02
7.71170981e+02
0.00000000e+00
0.00000000e+00
3.53357735e+02
0.00000000e+00
0.00000000e+00
0.00000000e+00
1.14801193e+03
0.00000000e+00
9.71116030e+02
8.11638616e+02
5.53469591e+02
0.00000000e+00
0.00000000e+00
7.36115639e+02
1.03940596e+03
1.11648636e+03
0.00000000e+00
0.00000000e+00
0.00000000e+00
0.00000000e+00
7.57108449e+02
0.00000000e+00
0.00000000e+00
0.00000000e+00
0.00000000e+00
0.00000000e+00
0.00000000e+00
1.14261667e+03
0.00000000e+00
0.00000000e+00
0.00000000e+00
0.00000000e+00
0.00000000e+00
0.00000000e+00
1.03103107e+03
1.17853697e+03
9.89870448e+02
0.00000000e+00
0.00000000e+00
6.95634362e+02
0.00000000e+00
0.00000000e+00
0.00000000e+00
7.59948059e+02
0.00000000e+00
0.00000000e+00
0.00000000e+00
1.03898642e+03
1.07833556e+03
1.22017170e+03
9.36890079e+02
9.23498293e+02
0.00000000e+00
0.00000000e+00
8.95976117e+02
0.00000000e+00
9.51913757e+02
0.00000000e+00
0.00000000e+00
0.00000000e+00
7.96179230e+02
9.36924502e+02
0.00000000e+00
0.00000000e+00
9.63453069e+02
0.00000000e+00
0.00000000e+00
1.03000692e+03
1.19607951e+03
1.18493691e+03
1.10466927e+03
1.06355666e+03
1.00349532e+03
7.98916819e+02
7.68672813e+02
8.13049945e+02
7.26501067e+02
0.00000000e+00
0.00000000e+00
0.00000000e+00
0.00000000e+00
6.98844923e+02
1.00650740e+03
1.05389395e+03
1.14688540e+03
1.11537069e+03
0.00000000e+00
0.00000000e+00
1.08454974e+03
1.16631131e+03
1.07779951e+03
0.00000000e+00
0.00000000e+00
9.18641952e+02
0.00000000e+00
0.00000000e+00
7.65786704e+02
0.00000000e+00
0.00000000e+00
0.00000000e+00
0.00000000e+00
0.00000000e+00
0.00000000e+00
0.00000000e+00
9.69784643e+02
1.26306164e+03
1.11268725e+03
8.07294136e+02
0.00000000e+00
1.04175869e+03
1.09934609e+03
0.00000000e+00
0.00000000e+00
8.62575071e+02
1.01669265e+03
7.63316911e+02
7.32431850e+02
7.20880452e+02
0.00000000e+00
0.00000000e+00
0.00000000e+00
0.00000000e+00
0.00000000e+00
0.00000000e+00
7.29670626e+02
8.92468846e+02
1.05701136e+03
1.12907595e+03
9.31101154e+02
0.00000000e+00
1.16696745e+03
9.97684133e+02
9.62256992e+02
0.00000000e+00
0.00000000e+00
0.00000000e+00
0.00000000e+00
0.00000000e+00
7.29213352e+02
0.00000000e+00
0.00000000e+00
0.00000000e+00
0.00000000e+00
0.00000000e+00
0.00000000e+00
4.65144535e+02
0.00000000e+00
0.00000000e+00
8.37495646e+02
8.53540205e+02
0.00000000e+00
9.57203909e+02
1.07734189e+03
1.05524194e+03
7.88275497e+02
0.00000000e+00
7.03973492e+02
8.51411794e+02
0.00000000e+00
0.00000000e+00
0.00000000e+00
0.00000000e+00
0.00000000e+00
0.00000000e+00
0.00000000e+00
0.00000000e+00
0.00000000e+00
0.00000000e+00
0.00000000e+00
0.00000000e+00
0.00000000e+00
0.00000000e+00
0.00000000e+00
0.00000000e+00
0.00000000e+00
8.14321502e+02
9.22275791e+02
0.00000000e+00
0.00000000e+00
0.00000000e+00
0.00000000e+00
0.00000000e+00
0.00000000e+00
0.00000000e+00
4.31586213e+02
0.00000000e+00
0.00000000e+00
0.00000000e+00
5.53307133e+02
0.00000000e+00
0.00000000e+00
0.00000000e+00
6.96334664e+02
0.00000000e+00
8.59353190e+02
9.88167067e+02
8.91093862e+02
0.00000000e+00
0.00000000e+00
0.00000000e+00
0.00000000e+00
0.00000000e+00
5.77108729e+02
6.54371881e+02
0.00000000e+00
0.00000000e+00
0.00000000e+00
0.00000000e+00
0.00000000e+00
6.84253019e+02
0.00000000e+00
0.00000000e+00
7.26854621e+02
0.00000000e+00
1.72972749e+03
1.63874045e+03
9.03134224e+02
1.21178115e+03
0.00000000e+00
8.69266986e+02
1.83927182e+03
0.00000000e+00
1.09146628e+03
1.57548727e+03
1.97871924e+03
2.30071565e+03
1.27251205e+03
1.16295726e+03
4.24174958e+02
1.89985324e+03
1.11386125e+03
1.00089624e+03
9.83057215e+02
0.00000000e+00
5.07890300e+02
1.85205742e+03
1.32951897e+03
1.18400969e+03
2.10031402e+03
1.13424365e+03
1.53962546e+03
1.23644826e+03
1.60183843e+03
1.15342729e+03
1.99842727e+03
2.34423705e+03
2.54276483e+03
1.33613275e+03
2.48475875e+03
2.48277650e+03
1.81575018e+03
1.43444799e+03
1.35053472e+03
1.75326271e+03
1.33718859e+03
0.00000000e+00
1.06261132e+03
1.41792156e+03
1.30503362e+03
1.81102551e+03
1.15154277e+03
1.17517430e+03
2.17203249e+03
1.08599914e+03
0.00000000e+00
9.56522824e+02
1.14307737e+03
9.32812246e+02
0.00000000e+00
1.01967724e+03
2.27654404e+03
7.42660518e+02
1.45464396e+03
5.60731391e+02
1.36562943e+03
1.18563826e+03
0.00000000e+00
1.64228158e+03
1.04396085e+03
2.34241220e+03
1.28147316e+03
1.25982245e+03
1.90678765e+03
1.08274921e+03
1.54244602e+03
9.42264806e+02
1.04082991e+03
1.36649365e+03
1.70954607e+03
2.37954347e+03
1.50703290e+03
9.40194552e+02
6.04547930e+02
1.84624805e+03
1.80393489e+03
1.23296396e+03
2.18661756e+03
0.00000000e+00
1.68802658e+03
1.32568890e+03
2.13665112e+03
2.18368419e+03
2.29919902e+03
2.27962291e+03
2.00323100e+03
5.34397827e+02
5.32538120e+02
2.32004070e+03
2.33047465e+03
2.11493735e+03
1.28549151e+03
1.28324754e+03
0.00000000e+00
2.50985214e+03
1.21260294e+03
1.14059897e+03
1.44847784e+03
8.01492395e+02
0.00000000e+00
1.90388479e+03
2.05152308e+03
1.24736236e+03
1.24867721e+03
2.27487646e+03
0.00000000e+00
2.41609907e+03
1.56428472e+03
7.19846089e+02
3.91407635e+02
2.46709807e+03
4.34534842e+02
1.90207607e+03
1.93311984e+03
1.40794145e+03
1.11604491e+03
1.49003329e+03
1.10074706e+03
8.83759951e+02
1.83422330e+03
6.34810743e+02
1.18951110e+03
1.43014922e+03
1.44420844e+03
1.77342306e+03
1.74867807e+03
1.07502330e+03
2.18060914e+03
1.46376686e+03
8.90240706e+02
1.92165626e+03
5.38288762e+02
1.99314887e+03
2.30744606e+03
1.52388219e+03
1.37717904e+03
1.74165150e+03
1.40623698e+03
9.45508969e+02
9.64958851e+02
7.67752342e+02
0.00000000e+00
0.00000000e+00
1.16512089e+03
0.00000000e+00
1.44887780e+03
1.54006017e+03
1.83122099e+03
1.68378669e+03
2.34143766e+03
1.43240292e+03
2.17110916e+03
1.33553995e+03
9.47074369e+02
2.38968705e+03
1.52982886e+03
2.28329181e+03
2.28050071e+03
8.53753602e+02
8.24520412e+02
0.00000000e+00
8.89510775e+02
7.75895644e+02
0.00000000e+00
2.17047357e+03
9.98737179e+02
1.71641370e+03
1.16008421e+03
1.90833906e+03
1.21930797e+03
1.97345821e+03
2.35085532e+03
1.12851444e+03
2.13900092e+03
2.49423820e+03
1.14926943e+03
1.97062964e+03
5.78830730e+02
8.23375708e+02
2.42182035e+03
2.39599500e+03
0.00000000e+00
1.05171501e+03
0.00000000e+00
0.00000000e+00
2.25587299e+03
0.00000000e+00
1.29167509e+03
1.17009061e+03
7.96378490e+02
6.90570828e+02
7.27006574e+02
2.01579683e+03
9.98468641e+02
1.10741586e+03
1.01253706e+03
2.48715688e+03
1.01772136e+03
5.14821185e+02
9.09254156e+02
9.68417512e+02
1.08418626e+03
8.41562315e+02
8.90390712e+02
0.00000000e+00
0.00000000e+00
1.73701827e+03
0.00000000e+00
1.23495172e+03
1.03091379e+03
1.12408234e+03
9.75133517e+02
1.78922587e+03
1.59310917e+03
1.91264047e+03
9.05993955e+02
2.30971265e+03
1.20965847e+03
2.32329078e+03
5.71793092e+02
7.94233675e+02
1.92584277e+03
2.29423178e+03
0.00000000e+00
1.37907686e+03
0.00000000e+00
6.34995230e+02
1.28543119e+03
0.00000000e+00
1.09847849e+03
1.05129429e+03
7.92366734e+02
1.34730990e+03
6.30981905e+02
2.32208989e+03
1.47129400e+03
2.43908034e+03
1.51910889e+03
1.88177043e+03
5.66087694e+02
1.94831823e+03
7.56087699e+02
7.86310499e+02
7.75405287e+02
0.00000000e+00
9.14831631e+02
0.00000000e+00
0.00000000e+00
1.67398404e+03
8.92374103e+02
1.81353975e+03
1.65830887e+03
9.75575186e+02
1.09235073e+03
1.82620810e+03
2.07202129e+03
1.00384002e+03
1.45451808e+03
2.45695751e+03
1.02591479e+03
2.33600430e+03
9.46697340e+02
1.14853270e+03
1.03905464e+03
2.45053301e+03
0.00000000e+00
2.20576432e+03
0.00000000e+00
9.02299357e+02
1.06632034e+03
1.14850127e+03
1.38292300e+03
1.05455129e+03
9.77170726e+02
1.38318388e+03
1.31777925e+03
1.94776379e+03
8.33301979e+02
1.02748384e+03
7.86199634e+02
8.97322875e+02
6.06420415e+02
5.49734618e+02
1.10392698e+03
1.31748218e+03
1.39896275e+03
0.00000000e+00
8.01045976e+02
0.00000000e+00
0.00000000e+00
1.07862319e+03
1.05091348e+03
1.32598004e+03
1.36797202e+03
1.20086643e+03
1.80447075e+03
2.31626513e+03
2.17406147e+03
7.65288744e+02
2.51561808e+03
6.44022997e+02
5.88448699e+02
6.66494712e+02
1.52910879e+03
1.44987047e+03
2.24576684e+03
8.67192258e+02
1.06173386e+03
8.17308443e+02
0.00000000e+00
0.00000000e+00
1.21884198e+03
1.31803799e+03
1.04768926e+03
9.19814474e+02
9.32059757e+02
1.07745535e+03
8.23598919e+02
1.01759500e+03
1.05502066e+03
1.12547915e+03
2.21764217e+03
1.02169002e+03
5.94529306e+02
8.30658317e+02
9.43425493e+02
1.83247061e+03
1.13151995e+03
1.47649715e+03
7.57515840e+02
0.00000000e+00
0.00000000e+00
1.32376868e+03
1.70332422e+03
1.01841331e+03
2.26753997e+03
8.05938565e+02
1.02985341e+03
8.45381200e+02
1.82253886e+03
8.04899002e+02
7.59126258e+02
6.47795610e+02
1.32349021e+03
1.06510962e+03
2.26244428e+03
9.68540181e+02
2.20894542e+03
1.16717085e+03
1.91007619e+03
9.25983775e+02
7.34809332e+02
0.00000000e+00
1.20607415e+03
9.43380758e+02
1.41154869e+03
9.15683864e+02
1.71250773e+03
1.27565207e+03
1.01379847e+03
1.48203718e+03
7.49803548e+02
1.07763736e+03
7.43644242e+02
2.12942711e+03
1.94157884e+03
1.06589687e+03
9.33436945e+02
1.18568580e+03
1.47430145e+03
9.04705914e+02
9.03231464e+02
7.09094493e+02
8.28839755e+02
1.19120680e+03
1.03496997e+03
1.18421868e+03
1.64917374e+03
1.33955791e+03
8.04713453e+02
0.00000000e+00
0.00000000e+00
0.00000000e+00
0.00000000e+00
0.00000000e+00
4.22215408e+02
0.00000000e+00
9.78820825e+02
1.19522144e+03
1.21158741e+03
1.02639471e+03
1.00369090e+03
1.49619103e+03
7.66919539e+02
0.00000000e+00
2.22706894e+03
8.16063223e+02
1.32350165e+03
8.35408479e+02
1.31665715e+03
1.07001621e+03
7.24377708e+02
1.19143695e+03
8.01112143e+02
1.71302931e+03
1.03143496e+03
2.28062250e+03
9.13625166e+02
1.02174775e+03
9.79872424e+02
1.08998963e+03
1.21347819e+03
1.37581204e+03
2.23872558e+03
7.00864451e+02
0.00000000e+00
0.00000000e+00
9.12243266e+02
9.52728270e+02
8.74841618e+02
0.00000000e+00
6.18484608e+02
6.99246004e+02
0.00000000e+00
0.00000000e+00
0.00000000e+00
5.88665172e+02
0.00000000e+00
0.00000000e+00
0.00000000e+00
5.99820586e+02
7.02580536e+02
7.68250636e+02
0.00000000e+00
0.00000000e+00
0.00000000e+00
1.27844937e+03
1.55233694e+03
1.34586962e+03
8.80605583e+02
1.24208629e+03
8.52602992e+02
9.41900255e+02
0.00000000e+00
9.92217658e+02
1.13059829e+03
1.05643607e+03
1.48080551e+03
6.26360606e+02
0.00000000e+00
1.29178147e+03
0.00000000e+00
1.11634281e+03
7.18003177e+02
6.83209045e+02
5.46112922e+02
0.00000000e+00
1.31526771e+03
2.14877796e+03
1.43140308e+03
1.22865703e+03
1.25989228e+03
1.24031691e+03
1.30827023e+03
1.14495340e+03
2.43071341e+03
9.88538388e+02
1.21197312e+03
1.55948751e+03
9.39468559e+02
0.00000000e+00
9.88656101e+02
1.97450055e+03
2.38339939e+03
2.11237334e+03
1.38120365e+03
9.45711394e+02
0.00000000e+00
1.91267833e+03
1.19121885e+03
1.83466510e+03
2.38705036e+03
2.08321057e+03
2.39960598e+03
2.38010058e+03
1.15586952e+03
1.37867108e+03
1.99363455e+03
8.75012804e+02
1.41573471e+03
1.25340401e+03
1.48998101e+03
1.43990104e+03
2.50894200e+03
1.05374347e+03
8.27435471e+02
9.65808633e+02
1.43038570e+03
0.00000000e+00
1.81291056e+03
1.11721475e+03
2.24167242e+03
1.21869800e+03
2.29477878e+03
1.00152903e+03
1.93124753e+03
1.92160727e+03
1.25764811e+03
9.21118980e+02
7.21985575e+02
2.01477279e+03
2.10613716e+03
8.33962124e+02
2.03854057e+03
1.47507540e+03
1.52518906e+03
1.70594852e+03
1.16962450e+03
1.58489988e+03
0.00000000e+00
1.35489543e+03
1.54025197e+03
1.20850375e+03
1.33886310e+03
1.85370284e+03
2.30274403e+03
1.24733014e+03
1.91538292e+03
9.71351326e+02
1.92622473e+03
1.60038541e+03
7.97993121e+02
1.10172666e+03
2.22007243e+03
1.12035196e+03
1.07148381e+03
1.66538849e+03
1.12138620e+03
2.48667511e+03
1.64982225e+03
0.00000000e+00
1.32649622e+03
1.48983752e+03
1.07641312e+03
1.44230396e+03
2.36092571e+03
1.44082775e+03
1.29888329e+03
2.23063678e+03
1.08530178e+03
1.90460267e+03
7.65939824e+02
2.08644680e+03
8.96978305e+02
7.56276776e+02
2.20709569e+03
1.54009935e+03
1.45229440e+03
1.17140108e+03
1.80912938e+03
1.11052352e+03
0.00000000e+00
1.03244938e+03
1.48025036e+03
1.95114582e+03
1.33773190e+03
1.28313339e+03
2.10596308e+03
1.48746486e+03
1.74517785e+03
1.21519048e+03
2.46547276e+03
1.44955573e+03
1.25312961e+03
1.23685001e+03
7.12213759e+02
2.26004967e+03
1.97852886e+03
2.09283065e+03
2.50377376e+03
1.25613766e+03
1.13098484e+03
8.09292878e+02
1.64885231e+03
8.67072378e+02
2.29285741e+03
2.20171772e+03
2.08963389e+03
1.79995497e+03
9.39157410e+02
9.11519944e+02
1.07051334e+03
2.26355950e+03
2.56469114e+03
1.71013912e+03
2.18923561e+03
2.54679908e+03
2.49256632e+03
1.04263337e+03
2.43795048e+03
2.46927997e+03
2.11791281e+03
8.46457889e+02
7.92607548e+02
1.08154224e+03
7.71196182e+02
1.39760922e+03
1.24314940e+03
2.14359957e+03
1.85324739e+03
2.28626288e+03
1.57490350e+03
1.43982758e+03
1.79484694e+03
2.50673131e+03
1.82637750e+03
1.34141990e+03
1.07962229e+03
2.28878159e+03
6.01493015e+02
2.19612921e+03
1.72202962e+03
1.22407417e+03
7.81089761e+02
6.58628929e+02
9.86217188e+02
0.00000000e+00
2.11148434e+03
1.16729718e+03
2.27412270e+03
2.20099754e+03
2.35849227e+03
1.07861601e+03
1.21696929e+03
1.95525499e+03
1.07592257e+03
1.62084558e+03
1.81895632e+03
1.23030180e+03
1.82067845e+03
1.09530047e+03
1.38302061e+03
1.05247063e+03
1.04245608e+03
0.00000000e+00
0.00000000e+00
7.22492274e+02
0.00000000e+00
1.90856062e+03
1.12591218e+03
2.13054337e+03
1.66956110e+03
1.76430014e+03
1.35812866e+03
2.23748056e+03
2.20773663e+03
1.75497340e+03
2.38417479e+03
1.10291437e+03
2.35374458e+03
2.17723297e+03
1.22281354e+03
2.05172877e+03
1.08192128e+03
1.52155059e+03
6.47275227e+02
0.00000000e+00
6.30290552e+02
0.00000000e+00
2.14195843e+03
1.21326832e+03
1.99598714e+03
1.01046924e+03
1.48254570e+03
9.77955332e+02
2.31422041e+03
1.22896861e+03
1.27652230e+03
1.31251022e+03
1.43473565e+03
1.34757646e+03
1.37026643e+03
1.34379120e+03
1.29882202e+03
1.36666017e+03
2.21088122e+03
0.00000000e+00
0.00000000e+00
0.00000000e+00
0.00000000e+00
1.65715635e+03
1.22932239e+03
2.11364542e+03
1.14058750e+03
2.10810800e+03
2.33634216e+03
1.90221345e+03
2.34860072e+03
1.58921706e+03
2.41023975e+03
8.46875362e+02
2.48620110e+03
8.76183476e+02
2.35138154e+03
2.09190542e+03
1.32716906e+03
2.21803992e+03
0.00000000e+00
0.00000000e+00
8.31154606e+02
0.00000000e+00
2.15194892e+03
1.27936332e+03
1.79088918e+03
1.53603601e+03
1.74339119e+03
1.31968707e+03
1.69526675e+03
2.11486036e+03
1.19896805e+03
2.16483285e+03
2.12978472e+03
2.49958073e+03
8.63684392e+02
1.06548419e+03
2.26738348e+03
1.77593483e+03
1.15060374e+03
0.00000000e+00
0.00000000e+00
0.00000000e+00
1.99969873e+03
2.03868099e+03
1.84154412e+03
2.28612861e+03
2.20768037e+03
1.37717575e+03
8.87648953e+02
2.26709278e+03
1.87374916e+03
1.45324538e+03
2.37754009e+03
1.34277058e+03
6.44340827e+02
2.43539887e+03
2.38585336e+03
9.40303750e+02
1.87532357e+03
2.22487771e+03
7.39029829e+02
0.00000000e+00
8.61052538e+02
1.45763691e+03
2.27088762e+03
1.96333197e+03
1.82282109e+03
1.24333307e+03
2.36939091e+03
1.35214833e+03
2.20884728e+03
1.91857266e+03
1.17461114e+03
2.02578788e+03
1.89451555e+03
1.51210069e+03
1.89501479e+03
2.16191259e+03
2.15924919e+03
1.88082104e+03
1.47045236e+03
8.48062535e+02
7.34193848e+02
0.00000000e+00
2.19036959e+03
9.36612920e+02
2.25361130e+03
1.26153550e+03
1.26013608e+03
9.95744346e+02
1.25207681e+03
1.72546525e+03
2.30410633e+03
1.28522019e+03
1.46675576e+03
1.13336241e+03
9.77287286e+02
1.79431286e+03
1.04246284e+03
2.20810637e+03
2.41710621e+03
2.11797034e+03
1.43093310e+03
0.00000000e+00
0.00000000e+00
1.20004524e+03
1.58706791e+03
1.09395357e+03
1.21240626e+03
2.29003259e+03
2.28788947e+03
1.74161051e+03
1.05468753e+03
7.48917979e+02
8.86265550e+02
8.89455288e+02
9.39632548e+02
1.18655814e+03
1.55198068e+03
2.32784354e+03
2.28415496e+03
1.97792952e+03
1.83872511e+03
1.15609567e+03
8.48011332e+02
0.00000000e+00
1.15281578e+03
2.13949847e+03
2.06282497e+03
1.44659583e+03
1.42214004e+03
1.38820551e+03
2.10533849e+03
2.05213598e+03
1.48266459e+03
1.40109928e+03
2.24859473e+03
2.03684442e+03
1.42355017e+03
1.47124478e+03
2.22572818e+03
2.37733668e+03
2.31054994e+03
2.01082517e+03
1.48875209e+03
0.00000000e+00
0.00000000e+00
1.01156421e+03
9.31416143e+02
1.95732298e+03
2.27904416e+03
1.95913648e+03
1.47845968e+03
7.02007703e+02
7.01153445e+02
6.94207447e+02
5.42170788e+02
0.00000000e+00
0.00000000e+00
0.00000000e+00
1.27754527e+03
1.14800756e+03
1.43346665e+03
1.02444613e+03
2.18824514e+03
1.15183239e+03
7.83973647e+02
0.00000000e+00
0.00000000e+00
0.00000000e+00
9.07614567e+02
0.00000000e+00
6.85922121e+02
0.00000000e+00
6.73490395e+02
6.15396081e+02
0.00000000e+00
9.11341015e+02
0.00000000e+00
6.98977696e+02
0.00000000e+00
6.85387631e+02
7.21018987e+02
0.00000000e+00
0.00000000e+00
0.00000000e+00
0.00000000e+00
0.00000000e+00
1.22727244e+03
8.61688747e+02
0.00000000e+00
2.31854645e+03
1.36703943e+03
1.47283861e+03