# vtk DataFile Version 3.0
MPS 3D Simulation Step 3400
ASCII
DATASET UNSTRUCTURED_GRID
POINTS 20213 double
-9.54857540e-04 3.96534379e-04 -8.41616547e-04
-8.32145552e-04 3.47814377e-04 -9.36048878e-04
-7.70032601e-04 3.72705962e-04 -9.91648005e-04
-7.52742085e-04 4.50424569e-04 -1.02632539e-03
-6.48270951e-04 3.03858565e-04 -1.05331302e-03
-6.12435138e-04 4.62478970e-04 -1.12321368e-03
-4.28643025e-04 2.88545143e-04 -1.15395367e-03
-3.60253738e-04 3.23927709e-04 -1.19293231e-03
-2.73008728e-04 1.72887540e-04 -1.14151066e-03
-2.27122486e-04 6.93060580e-04 -1.09658829e-03
-3.99207463e-05 4.32066987e-04 -1.16319614e-03
-1.36310965e-04 4.80354107e-04 -1.16411255e-03
-3.24228402e-05 1.23164586e-04 -1.12969262e-03
1.36142815e-04 1.58243102e-04 -1.14678089e-03
2.14023447e-04 2.01530282e-04 -1.15742319e-03
4.47244731e-04 1.97398578e-04 -1.08809411e-03
4.44075737e-04 3.56137550e-04 -1.03932862e-03
5.30795805e-04 2.10722150e-04 -1.07070774e-03
6.12123560e-04 1.22364818e-04 -9.03989779e-04
7.58972640e-04 3.55743882e-04 -8.68953300e-04
8.83573331e-04 1.52541196e-04 -7.56576738e-04
-8.90532854e-04 4.10874640e-04 -9.05222633e-04
-8.25811445e-04 4.31816080e-04 -9.66126163e-04
-8.10299298e-04 5.11597178e-04 -9.98649469e-04
-6.83510720e-04 4.55294420e-04 -1.07898434e-03
-6.53429948e-04 6.22087811e-04 -1.12591266e-03
-6.70562427e-04 5.34539920e-04 -1.10322011e-03
-5.45269964e-04 4.89726379e-04 -1.16549996e-03
-3.71321460e-04 4.07138493e-04 -1.21361950e-03
-1.96646273e-04 2.66828261e-04 -1.20790957e-03
-1.19772813e-04 2.36233962e-04 -1.20568974e-03
3.57923575e-05 1.80740834e-04 -1.17248692e-03
1.12999570e-04 2.24858342e-04 -1.18664580e-03
3.30898942e-04 3.70708803e-04 -1.19830968e-03
2.81432122e-04 4.52363305e-04 -1.23386307e-03
3.53318674e-04 2.94617060e-04 -1.16551261e-03
4.27002091e-04 2.66483277e-04 -1.13296009e-03
5.03659470e-04 2.76924395e-04 -1.11033079e-03
5.17244473e-04 1.48400614e-04 -1.03268074e-03
5.68311634e-04 3.43830098e-04 -1.11220543e-03
6.75158090e-04 2.62145089e-04 -1.02521261e-03
8.54496976e-04 2.19339583e-04 -8.56560024e-04
-8.77627503e-04 4.95528683e-04 -9.41686401e-04
-8.70508980e-04 5.76296306e-04 -9.68699720e-04
-8.84215345e-04 7.32625464e-04 -9.82051301e-04
-7.01189145e-04 3.76568920e-04 -1.04559459e-03
-7.38913116e-04 5.31594816e-04 -1.05524236e-03
-6.00640237e-04 5.51553200e-04 -1.14762093e-03
-4.38811686e-04 3.68276192e-04 -1.17932887e-03
-5.58465435e-04 3.93596070e-04 -1.13563939e-03
-2.94464607e-04 3.90651090e-04 -1.22935082e-03
-1.24136732e-04 3.11672743e-04 -1.23330794e-03
3.36241746e-06 5.02409199e-04 -1.27723259e-03
1.06964246e-04 3.01795105e-04 -1.22229905e-03
2.40090626e-04 3.86616737e-04 -1.22684576e-03
3.64866040e-04 4.39666950e-04 -1.20932878e-03
2.85215634e-04 2.40622429e-04 -1.15947469e-03
4.47131170e-04 4.26777073e-04 -1.18113282e-03
5.36603860e-04 4.18908606e-04 -1.14818914e-03
4.90309787e-04 3.50402793e-04 -1.14710208e-03
6.49309064e-04 3.37725433e-04 -1.07003103e-03
7.33438805e-04 2.17272628e-04 -9.69546920e-04
7.84157053e-04 1.95824817e-04 -9.09808058e-04
-9.94106200e-04 5.65140406e-04 -8.49494258e-04
-9.34028536e-04 5.58409783e-04 -9.09792886e-04
-8.48228874e-04 6.58221356e-04 -1.00427973e-03
-7.26088297e-04 6.13168165e-04 -1.08041902e-03
-5.27280527e-04 5.80457069e-04 -1.19000388e-03
-4.88964840e-04 4.29712166e-04 -1.17686155e-03
-4.18479017e-04 4.68196462e-04 -1.21256354e-03
-2.07540907e-04 3.46962678e-04 -1.23443543e-03
-1.39889608e-04 3.90947158e-04 -1.25536736e-03
-4.13819117e-05 2.90615339e-04 -1.23027982e-03
6.79304159e-05 5.57354066e-04 -1.28309799e-03
6.45586905e-05 1.19763427e-04 -1.12774644e-03
1.04665090e-04 3.94271668e-04 -1.24940996e-03
1.80911366e-04 4.51424781e-04 -1.24851916e-03
2.40324849e-04 5.19444322e-04 -1.25507836e-03
4.17922544e-04 3.47126783e-04 -1.16943931e-03
4.62984874e-04 5.76159814e-04 -1.21379098e-03
6.94660075e-04 4.06392075e-04 -1.06289832e-03
7.25733778e-04 3.33502706e-04 -1.02399607e-03
7.65141133e-04 2.81410258e-04 -9.76561932e-04
8.58460443e-04 3.43144074e-04 -9.18817282e-04
-1.02708693e-03 6.43476155e-04 -8.28859116e-04
-8.21519127e-04 7.43552486e-04 -1.03301903e-03
-7.97436148e-04 5.91218846e-04 -1.02636725e-03
-5.85412262e-04 6.39819249e-04 -1.16685085e-03
-4.37097852e-04 5.99422032e-04 -1.22956480e-03
-4.74199201e-04 5.24130580e-04 -1.20411925e-03
-2.25121220e-04 4.30765255e-04 -1.25190977e-03
-1.52499963e-04 4.73820180e-04 -1.27042679e-03
-6.65876125e-05 4.41239592e-04 -1.26937315e-03
-2.35520276e-05 5.82200223e-04 -1.29147666e-03
4.21156620e-05 6.38730221e-04 -1.29658963e-03
2.01632287e-05 4.22402718e-04 -1.26313290e-03
1.34131401e-04 6.17390881e-04 -1.28589821e-03
2.82740399e-04 6.79371432e-04 -1.27350366e-03
1.56697421e-04 5.36456845e-04 -1.27024074e-03
3.33538189e-04 5.18282635e-04 -1.23717489e-03
4.16624495e-04 5.07146047e-04 -1.21248206e-03
6.17675600e-04 4.13455930e-04 -1.10782993e-03
7.66722157e-04 4.21467149e-04 -1.01890891e-03
7.98379664e-04 3.56199533e-04 -9.77032354e-04
7.99411434e-04 5.02028943e-04 -1.01341373e-03
-1.04306370e-03 7.32663391e-04 -8.13542098e-04
-9.10714720e-04 6.47761522e-04 -9.49910169e-04
-7.53004024e-04 7.65103037e-04 -1.07853394e-03
-7.79957850e-04 6.72721268e-04 -1.05483234e-03
-5.01315991e-04 6.52559128e-04 -1.21130999e-03
-3.09197896e-04 5.63183625e-04 -1.26376617e-03
-3.17067564e-04 4.76547032e-04 -1.24155674e-03
-2.38149726e-04 5.12252416e-04 -1.26523782e-03
-8.47661611e-05 5.22045842e-04 -1.28252547e-03
-1.02913772e-04 6.12304583e-04 -1.29628309e-03
-3.85750748e-05 6.72140257e-04 -1.30523085e-03
9.41526358e-05 4.75543030e-04 -1.26611452e-03
2.19628629e-04 6.03756074e-04 -1.27461027e-03
2.97373211e-04 5.95166514e-04 -1.26029423e-03
1.73072690e-04 3.51423942e-04 -1.22745751e-03
3.30673095e-04 7.57737396e-04 -1.26578772e-03
3.79205796e-04 5.90713880e-04 -1.23910339e-03
4.98385474e-04 4.92510193e-04 -1.18235177e-03
6.55308421e-04 4.87554260e-04 -1.10634962e-03
7.26572649e-04 4.93156756e-04 -1.06258069e-03
8.61034330e-04 5.39703551e-04 -9.73525010e-04
-9.95266067e-04 7.04568388e-04 -8.74933269e-04
-9.66203872e-04 6.32272198e-04 -8.97057017e-04
-8.08887987e-04 8.22777213e-04 -1.04039587e-03
-6.42893060e-04 7.08070826e-04 -1.13878880e-03
-5.53876712e-04 7.14362587e-04 -1.18974310e-03
-3.59761273e-04 6.29632448e-04 -1.25932235e-03
-2.41410302e-04 6.01996229e-04 -1.28265077e-03
-1.68078969e-04 5.58331942e-04 -1.28303122e-03
-1.77775233e-04 6.48822431e-04 -1.29854165e-03
-1.20389007e-04 7.08576343e-04 -1.30789076e-03
2.37375985e-05 7.27950737e-04 -1.30918203e-03
1.06931463e-04 6.95336137e-04 -1.29979552e-03
1.99209000e-04 6.84022645e-04 -1.28914422e-03
1.66094411e-04 7.58774665e-04 -1.29952874e-03
2.52244026e-04 7.59579213e-04 -1.28441561e-03
5.20872302e-04 6.48846675e-04 -1.20236018e-03
4.98331581e-04 7.29431538e-04 -1.21606124e-03
5.80038295e-04 4.90448695e-04 -1.14662876e-03
5.37456650e-04 5.67072050e-04 -1.18340799e-03
8.27024191e-04 6.03608436e-04 -1.01509343e-03
7.91993542e-04 6.73463220e-04 -1.05168570e-03
-1.03343587e-03 8.23695403e-04 -8.12495722e-04
-9.44028504e-04 7.28719282e-04 -9.27335790e-04
-8.76238241e-04 8.13291287e-04 -9.86245211e-04
-7.11970509e-04 6.96894784e-04 -1.10087945e-03
-4.29897600e-04 6.84663854e-04 -1.24361081e-03
-2.86374210e-04 6.69651437e-04 -1.28242466e-03
-2.92125266e-04 7.55817727e-04 -1.28535344e-03
-2.14857592e-04 7.19672231e-04 -1.29859446e-03
-1.51516801e-04 7.84514151e-04 -1.30629209e-03
-5.87129475e-05 7.61850433e-04 -1.31336609e-03
3.40028544e-06 8.17792077e-04 -1.31292670e-03
8.58951980e-05 7.80727237e-04 -1.30880141e-03
1.64273002e-04 8.39338920e-04 -1.29677639e-03
2.48101299e-04 8.40102106e-04 -1.28118379e-03
3.23885647e-04 8.44592340e-04 -1.26264557e-03
4.42010626e-04 6.55224774e-04 -1.23247551e-03
4.16585529e-04 7.39546437e-04 -1.24433320e-03
5.70528107e-04 7.42403729e-04 -1.18539538e-03
6.13496936e-04 5.66231947e-04 -1.14887277e-03
7.64752904e-04 5.71295874e-04 -1.05568209e-03
8.32070008e-04 8.16969054e-04 -1.01660408e-03
-9.92210177e-04 7.86625797e-04 -8.70354976e-04
-9.33744155e-04 8.13133995e-04 -9.26796538e-04
-8.59069295e-04 8.87015232e-04 -9.89495269e-04
-5.36511853e-04 8.05501967e-04 -1.19588394e-03
-4.82472670e-04 7.45521773e-04 -1.22436994e-03
-3.61386345e-04 7.18489480e-04 -1.26783180e-03
-3.36056406e-04 8.21332333e-04 -1.26847697e-03
-2.30823721e-04 8.07856294e-04 -1.29531323e-03
-1.71446804e-04 8.71033402e-04 -1.29752332e-03
-8.78525406e-05 8.40362973e-04 -1.30967435e-03
-2.19570291e-05 8.95520483e-04 -1.30713467e-03
8.02690844e-05 8.58850276e-04 -1.30621604e-03
1.38904187e-04 9.22471213e-04 -1.28819129e-03
2.22690455e-04 9.16101833e-04 -1.27326614e-03
3.01845162e-04 9.26985319e-04 -1.25300497e-03
3.97881800e-04 8.19938561e-04 -1.24739133e-03
4.54765189e-04 9.66510131e-04 -1.20587925e-03
4.78603855e-04 8.09145362e-04 -1.22336497e-03
5.91313268e-04 6.56124281e-04 -1.17314135e-03
6.87113149e-04 5.65699537e-04 -1.10734488e-03
7.77711027e-04 7.58130711e-04 -1.06551284e-03
-9.75783442e-04 8.68892256e-04 -8.65077950e-04
-8.48405093e-04 9.60231714e-04 -9.76137312e-04
-7.39861546e-04 8.47790457e-04 -1.08331733e-03
-6.04927034e-04 7.74685400e-04 -1.16317385e-03
-5.43767341e-04 8.87689468e-04 -1.18255944e-03
-4.12767076e-04 7.80098611e-04 -1.25085530e-03
-3.93948922e-04 8.72678022e-04 -1.24421691e-03
-2.71649948e-04 8.73636164e-04 -1.27907312e-03
-2.18267177e-04 9.35956318e-04 -1.27777651e-03
-1.07859756e-04 9.23100050e-04 -1.29794866e-03
-4.16906265e-05 9.76297165e-04 -1.29349546e-03
5.17487938e-05 9.29673411e-04 -1.30171521e-03
1.17595792e-04 1.00243191e-03 -1.27571060e-03
2.01263914e-04 9.95181095e-04 -1.26039398e-03
2.78951538e-04 1.00795192e-03 -1.23801312e-03
3.87983237e-04 9.06192757e-04 -1.23709052e-03
5.15939384e-04 1.00784015e-03 -1.17463336e-03
4.66754682e-04 8.85679670e-04 -1.21859492e-03
6.47976423e-04 7.27258010e-04 -1.14789268e-03
7.31683961e-04 6.36289796e-04 -1.09155309e-03
8.09342725e-04 8.94682949e-04 -1.02360869e-03
-9.13618745e-04 8.95294481e-04 -9.27074457e-04
-8.29987731e-04 1.04106271e-03 -9.62971267e-04
[...]
POINT_DATA 20213
SCALARS pressure double 1
LOOKUP_TABLE default
1.11305243e+03
0.00000000e+00
7.27158675e+02
9.04013629e+02
7.19020605e+02
6.96324377e+02
0.00000000e+00
0.00000000e+00
0.00000000e+00
1.13810617e+03
1.10274150e+03
1.04327388e+03
0.00000000e+00
0.00000000e+00
0.00000000e+00
6.29957720e+02
9.63750593e+02
5.57867557e+02
5.25006258e+02
1.12027485e+03
7.45021470e+02
0.00000000e+00
8.98092785e+02
8.38684954e+02
0.00000000e+00
5.37423917e+02
0.00000000e+00
0.00000000e+00
0.00000000e+00
7.99509112e+02
0.00000000e+00
0.00000000e+00
0.00000000e+00
9.62537608e+02
1.03941236e+03
0.00000000e+00
6.85853444e+02
0.00000000e+00
0.00000000e+00
0.00000000e+00
0.00000000e+00
1.00828527e+03
7.93231067e+02
0.00000000e+00
7.39877865e+02
0.00000000e+00
8.24534743e+02
0.00000000e+00
6.75185638e+02
8.25652033e+02
0.00000000e+00
9.32835369e+02
1.09320906e+03
0.00000000e+00
0.00000000e+00
1.07826306e+03
0.00000000e+00
1.06225214e+03
0.00000000e+00
0.00000000e+00
0.00000000e+00
0.00000000e+00
0.00000000e+00
7.80437904e+02
0.00000000e+00
0.00000000e+00
7.95964802e+02
5.80207893e+02
0.00000000e+00
0.00000000e+00
0.00000000e+00
8.78810722e+02
0.00000000e+00
9.85161526e+02
0.00000000e+00
0.00000000e+00
0.00000000e+00
1.09426461e+03
0.00000000e+00
1.03021593e+03
0.00000000e+00
0.00000000e+00
0.00000000e+00
1.10947924e+03
0.00000000e+00
7.17614715e+02
7.92584482e+02
0.00000000e+00
7.68925635e+02
6.56115448e+02
0.00000000e+00
8.68942285e+02
1.06325442e+03
8.74323236e+02
9.11110563e+02
9.78172801e+02
9.79685022e+02
0.00000000e+00
1.03393039e+03
1.14229885e+03
1.10178121e+03
9.44779514e+02
1.09684885e+03
1.02944484e+03
1.09392479e+03
0.00000000e+00
0.00000000e+00
0.00000000e+00
8.25094917e+02
0.00000000e+00
0.00000000e+00
0.00000000e+00
8.33934253e+02
0.00000000e+00
7.60791700e+02
0.00000000e+00
0.00000000e+00
1.03793758e+03
9.54760677e+02
0.00000000e+00
0.00000000e+00
9.89796263e+02
0.00000000e+00
1.03470065e+03
1.18691532e+03
9.59826378e+02
0.00000000e+00
0.00000000e+00
0.00000000e+00
0.00000000e+00
0.00000000e+00
8.53977361e+02
9.32102343e+02
0.00000000e+00
0.00000000e+00
0.00000000e+00
0.00000000e+00
0.00000000e+00
0.00000000e+00
0.00000000e+00
0.00000000e+00
1.08267633e+03
8.17755142e+02
1.03875608e+03
1.05787932e+03
0.00000000e+00
0.00000000e+00
8.96471100e+02
7.28209210e+02
0.00000000e+00
0.00000000e+00
7.51799941e+02
9.95911665e+02
1.02036728e+03
9.50948488e+02
9.27284157e+02
0.00000000e+00
0.00000000e+00
0.00000000e+00
0.00000000e+00
0.00000000e+00
7.41982919e+02
0.00000000e+00
0.00000000e+00
8.74277117e+02
1.17658831e+03
1.05984827e+03
0.00000000e+00
0.00000000e+00
8.45555445e+02
0.00000000e+00
0.00000000e+00
0.00000000e+00
9.64584289e+02
8.53023165e+02
9.95452370e+02
0.00000000e+00
8.58649446e+02
7.26602104e+02
7.11018447e+02
8.05743043e+02
6.95834456e+02
8.20206429e+02
0.00000000e+00
0.00000000e+00
0.00000000e+00
1.14225711e+03
1.08056335e+03
7.21970850e+02
9.41160479e+02
8.64667495e+02
0.00000000e+00
0.00000000e+00
0.00000000e+00
0.00000000e+00
0.00000000e+00
8.44714395e+02
8.37306458e+02
0.00000000e+00
0.00000000e+00
0.00000000e+00
0.00000000e+00
0.00000000e+00
7.55803452e+02
7.50293064e+02
1.06118481e+03
0.00000000e+00
0.00000000e+00
0.00000000e+00
0.00000000e+00
9.61441295e+02
8.09287132e+02
0.00000000e+00
0.00000000e+00
0.00000000e+00
0.00000000e+00
0.00000000e+00
7.22687281e+02
7.37661469e+02
7.25368103e+02
6.74236470e+02
0.00000000e+00
0.00000000e+00
0.00000000e+00
0.00000000e+00
8.20216159e+02
0.00000000e+00
0.00000000e+00
9.31616213e+02
1.01657344e+03
0.00000000e+00
1.01942472e+03
1.02187589e+03
0.00000000e+00
0.00000000e+00
0.00000000e+00
0.00000000e+00
0.00000000e+00
0.00000000e+00
6.13463920e+02
6.91933389e+02
0.00000000e+00
6.17445519e+02
0.00000000e+00
0.00000000e+00
9.01665196e+02
1.32028290e+03
1.19648579e+03
1.22386089e+03
1.06597967e+03
0.00000000e+00
0.00000000e+00
8.99356595e+02
8.11477913e+02
0.00000000e+00
0.00000000e+00
0.00000000e+00
0.00000000e+00
0.00000000e+00
0.00000000e+00
0.00000000e+00
0.00000000e+00
0.00000000e+00
5.50469904e+02
0.00000000e+00
9.67650040e+02
0.00000000e+00
1.65580007e+03
1.41449843e+03
1.45464300e+03
0.00000000e+00
0.00000000e+00
0.00000000e+00
8.34532611e+02
0.00000000e+00
0.00000000e+00
0.00000000e+00
0.00000000e+00
0.00000000e+00
0.00000000e+00
0.00000000e+00
6.33728019e+02
0.00000000e+00
0.00000000e+00
0.00000000e+00
0.00000000e+00
0.00000000e+00
1.29983314e+03
1.51032320e+03
1.87196745e+03
1.23498112e+03
0.00000000e+00
0.00000000e+00
0.00000000e+00
0.00000000e+00
1.03513556e+03
0.00000000e+00
0.00000000e+00
0.00000000e+00
0.00000000e+00
0.00000000e+00
0.00000000e+00
5.58342972e+02
0.00000000e+00
0.00000000e+00
0.00000000e+00
0.00000000e+00
8.13663378e+02
1.42436885e+03
1.66363941e+03
1.75265624e+03
1.59483440e+03
1.33843299e+03
0.00000000e+00
0.00000000e+00
0.00000000e+00
9.46846369e+02
8.42529574e+02
0.00000000e+00
4.51966277e+02
0.00000000e+00
5.48410819e+02
6.06212732e+02
0.00000000e+00
0.00000000e+00
0.00000000e+00
0.00000000e+00
8.87201910e+02
1.20700065e+03
1.45523700e+03
1.15426965e+03
1.70799405e+03
1.22162573e+03
1.01367467e+03
0.00000000e+00
6.00601197e+02
9.76639699e+02
1.30031375e+03
1.13965139e+03
8.39157010e+02
0.00000000e+00
0.00000000e+00
4.69523632e+02
4.10871334e+02
0.00000000e+00
0.00000000e+00
0.00000000e+00
0.00000000e+00
8.54770476e+02
1.16754818e+03
1.46808930e+03
1.60340803e+03
1.59382764e+03
1.55594277e+03
0.00000000e+00
0.00000000e+00
0.00000000e+00
1.19527224e+03
1.18763558e+03
1.06353604e+03
1.05632760e+03
8.80842711e+02
0.00000000e+00
0.00000000e+00
0.00000000e+00
0.00000000e+00
0.00000000e+00
0.00000000e+00
0.00000000e+00
0.00000000e+00
1.27661469e+03
1.46631996e+03
0.00000000e+00
1.45518578e+03
1.44615242e+03
1.25138519e+03
9.51447249e+02
0.00000000e+00
1.20042798e+03
1.29836564e+03
1.25212891e+03
0.00000000e+00
0.00000000e+00
0.00000000e+00
0.00000000e+00
0.00000000e+00
0.00000000e+00
0.00000000e+00
0.00000000e+00
0.00000000e+00
0.00000000e+00
0.00000000e+00
1.24861432e+03
0.00000000e+00
1.30228774e+03
0.00000000e+00
1.08902669e+03
0.00000000e+00
8.94356980e+02
1.16869243e+03
1.23424550e+03
1.03606297e+03
0.00000000e+00
0.00000000e+00
0.00000000e+00
0.00000000e+00
0.00000000e+00
0.00000000e+00
0.00000000e+00
0.00000000e+00
5.99921523e+02
0.00000000e+00
0.00000000e+00
0.00000000e+00
1.16090987e+03
0.00000000e+00
1.38873378e+03
1.38628919e+03
1.33832104e+03
1.02602569e+03
9.99708956e+02
1.04150678e+03
9.44021620e+02
0.00000000e+00
0.00000000e+00
0.00000000e+00
0.00000000e+00
0.00000000e+00
0.00000000e+00
0.00000000e+00
0.00000000e+00
5.82692046e+02
0.00000000e+00
0.00000000e+00
8.49372405e+02
1.02776391e+03
1.35834363e+03
1.33106674e+03
1.19388740e+03
9.83696462e+02
0.00000000e+00
1.26121471e+03
0.00000000e+00
0.00000000e+00
0.00000000e+00
0.00000000e+00
0.00000000e+00
7.27818506e+02
0.00000000e+00
7.15889089e+02
1.08593472e+03
1.17599881e+03
1.02658559e+03
0.00000000e+00
9.74888157e+02
9.07111884e+02
1.19593335e+03
0.00000000e+00
8.52235547e+02
4.87272333e+02
7.89384255e+02
1.12527438e+03
1.05715948e+03
2.17695681e+03
1.13227245e+03
1.17602638e+03
6.65929255e+02
9.31756040e+02
9.45437158e+02
1.06109485e+03
1.02064365e+03
1.12937109e+03
1.73440428e+03
1.47964636e+03
1.09230634e+03
1.60120186e+03
1.60960927e+03
1.31627607e+03
1.47582372e+03
1.11475724e+03
1.26073847e+03
9.51218661e+02
1.12879492e+03
0.00000000e+00
1.19879515e+03
1.14460492e+03
9.63701169e+02
1.24970884e+03
2.03469621e+03
7.88529063e+02
7.04317887e+02
0.00000000e+00
6.19686504e+02
9.97455161e+02
0.00000000e+00
0.00000000e+00
0.00000000e+00
1.96853377e+03
1.40227122e+03
1.60735392e+03
5.27329230e+02
8.60039305e+02
9.29414231e+02
9.90843324e+02
9.76111307e+02
1.05668148e+03
1.56165541e+03
1.89596252e+03
1.80988236e+03
2.28338894e+03
5.30426629e+02
9.74916229e+02
6.98961860e+02
1.88071600e+03
7.95862533e+02
9.67454008e+02
1.05277491e+03
9.56684903e+02
8.45140764e+02
1.12563774e+03
1.39746593e+03
1.60697396e+03
1.03296506e+03
1.29367015e+03
1.05161033e+03
1.23923056e+03
1.09580980e+03
1.15501844e+03
7.97654135e+02
1.73534548e+03
1.13902208e+03
1.56712993e+03
7.21245208e+02
8.25752755e+02
1.27785667e+03
1.15499810e+03
2.09828813e+03
6.51986370e+02
1.99326821e+03
1.75172553e+03
1.63913772e+03
1.57303551e+03
1.29248519e+03
1.44709991e+03
5.45103880e+02
7.07941776e+02
1.18589050e+03
1.71619343e+03
9.75821691e+02
7.67038371e+02
1.83784669e+03
0.00000000e+00
1.53489694e+03
1.12986156e+03
8.12982244e+02
8.26419237e+02
1.48384564e+03
7.15622093e+02
1.13935414e+03
1.11125490e+03
1.46746523e+03
0.00000000e+00
1.86746671e+03
1.30039225e+03
8.95738936e+02
1.03470771e+03
0.00000000e+00
0.00000000e+00
1.19324001e+03
9.97008848e+02
9.35892742e+02
1.39217392e+03
6.12879321e+02
9.16666701e+02
8.77831101e+02
8.30129787e+02
1.69635260e+03
7.54896550e+02
1.31419937e+03
1.95901904e+03
9.65380234e+02
1.25710408e+03
1.52618221e+03
1.50045811e+03
1.34232573e+03
1.40306555e+03
8.33701700e+02
0.00000000e+00
0.00000000e+00
1.00062041e+03
0.00000000e+00
9.87399773e+02
8.40630407e+02
1.18778060e+03
6.89147067e+02
1.42610873e+03
1.26014205e+03
9.26957223e+02
8.35673670e+02
9.73301662e+02
1.88253077e+03
1.16009583e+03
1.20557425e+03
1.79909515e+03
1.16981081e+03
1.15185080e+03
1.03731877e+03
8.94411544e+02
0.00000000e+00
0.00000000e+00
1.35161876e+03
0.00000000e+00
1.95087038e+03
2.02246061e+03
8.16630358e+02
8.52272063e+02
1.14897834e+03
1.09351163e+03
2.00537787e+03
1.04437871e+03
1.83697381e+03
2.05438485e+03
1.36886662e+03
1.28110494e+03
1.62980642e+03
2.03162956e+03
1.65830354e+03
9.88518433e+02
1.09195107e+03
0.00000000e+00
7.83499726e+02
1.32304050e+03
0.00000000e+00
6.82524065e+02
5.31385721e+02
6.52126054e+02
6.77211806e+02
5.43284357e+02
1.18205263e+03
7.36015711e+02
8.03475595e+02
7.12235373e+02
1.71480544e+03
8.59185628e+02
9.35104495e+02
1.16166953e+03
1.51236226e+03
1.42432597e+03
0.00000000e+00
8.24936428e+02
3.53916773e+02
1.01158750e+03
1.16457434e+03
0.00000000e+00
1.05535189e+03
5.67333468e+02
6.72862561e+02
6.14925160e+02
8.55619510e+02
9.06864020e+02
1.12383340e+03
9.32371444e+02
1.54192041e+03
2.00991039e+03
1.61490033e+03
1.57112672e+03
1.69566725e+03
1.43356078e+03
2.13461757e+03
9.33658541e+02
1.16498201e+03
0.00000000e+00
9.19230807e+02
1.19104529e+03
4.52525605e+02
1.04998276e+03
9.22755182e+02
6.93348456e+02
6.68076272e+02
6.86151397e+02
1.89729323e+03
8.15725987e+02
1.77228473e+03
1.23712277e+03
1.35788149e+03
1.10844336e+03
1.40068280e+03
1.63169195e+03
1.54453176e+03
1.33282631e+03
1.05630730e+03
9.82194394e+02
0.00000000e+00
0.00000000e+00
1.30962103e+03
0.00000000e+00
1.28458536e+03
1.45316845e+03
7.54349336e+02
7.58215784e+02
1.37890876e+03
2.21082634e+03
8.89985275e+02
9.71414132e+02
1.83208135e+03
2.13601665e+03
1.83516364e+03
1.53482525e+03
1.45842381e+03
1.52824763e+03
1.87849086e+03
0.00000000e+00
1.41701723e+03
0.00000000e+00
0.00000000e+00
1.12203310e+03
0.00000000e+00
1.24943784e+03
9.10480133e+02
6.17712697e+02
8.25423384e+02
8.78508060e+02
1.15143498e+03
4.84737543e+02
5.26629914e+02
6.49794611e+02
1.11711347e+03
6.57341628e+02
1.46841641e+03
1.50998134e+03
1.55478260e+03
1.44909792e+03
9.45390339e+02
1.01429459e+03
5.88294855e+02
0.00000000e+00
1.30897519e+03
1.15490689e+03
1.20480215e+03
1.19873250e+03
9.08555323e+02
1.36826781e+03
1.83958224e+03
7.53451038e+02
6.84374456e+02
1.27865918e+03
9.03438841e+02
9.00619665e+02
7.58480645e+02
1.18432497e+03
1.45691705e+03
1.60472005e+03
1.43550932e+03
1.36069036e+03
1.20166648e+03
0.00000000e+00
0.00000000e+00
1.12532053e+03
1.28758719e+03
1.18804957e+03
6.37168609e+02
0.00000000e+00
8.21038093e+02
3.34330793e+02
4.99988595e+02
5.10069800e+02
6.20197269e+02
1.37301402e+03
1.15201217e+03
1.09999896e+03
1.06626039e+03
1.64697859e+03
1.41759391e+03
1.38292828e+03
1.35260294e+03
1.35048561e+03
0.00000000e+00
0.00000000e+00
1.20223127e+03
1.51433830e+03
9.31614787e+02
1.93337819e+03
4.42703898e+02
8.51681208e+02
4.19811636e+02
1.00932191e+03
4.57322017e+02
8.98392178e+02
8.15819305e+02
1.36149341e+03
1.13145687e+03
1.59627913e+03
1.31435341e+03
1.68144728e+03
1.48143717e+03
1.50565137e+03
1.12454913e+03
8.60213450e+02
1.13658072e+03
1.12015501e+03
9.66205562e+02
1.20464991e+03
6.76222537e+02
1.32622654e+03
8.06936193e+02
4.27311820e+02
1.35062832e+03
5.99041494e+02
9.32593011e+02
6.49202644e+02
1.74093093e+03
1.37054608e+03
1.32896073e+03
1.29683321e+03
1.35738334e+03
1.32516359e+03
1.35419469e+03
1.24711217e+03
8.75473903e+02
0.00000000e+00
1.03050901e+03
9.48634650e+02
8.05318488e+02
1.45258913e+03
1.04457768e+03
6.68284988e+02
0.00000000e+00
0.00000000e+00
0.00000000e+00
0.00000000e+00
0.00000000e+00
0.00000000e+00
0.00000000e+00
1.12184030e+03
1.18558943e+03
1.31535870e+03
1.04035434e+03
1.06036745e+03
1.26219615e+03
1.02202981e+03
8.77379279e+02
1.53885834e+03
8.45239804e+02
1.19944240e+03
7.65475172e+02
9.98032914e+02
7.52834860e+02
7.13775248e+02
8.07445231e+02
4.55699267e+02
1.45270860e+03
9.03665919e+02
1.81963595e+03
4.41286998e+02
4.98904620e+02
8.41293360e+02
7.53517216e+02
1.16158466e+03
1.15525480e+03
1.58374319e+03
9.38687887e+02
9.20948144e+02
1.05399652e+03
1.02115926e+03
9.76961133e+02
0.00000000e+00
5.37597377e+02
0.00000000e+00
0.00000000e+00
0.00000000e+00
0.00000000e+00
0.00000000e+00
0.00000000e+00
0.00000000e+00
0.00000000e+00
7.81859881e+02
1.24157462e+03
1.08909846e+03
1.26556143e+03
1.06612748e+03
0.00000000e+00
0.00000000e+00
1.07692115e+03
1.27933230e+03
8.10916160e+02
0.00000000e+00
8.19862069e+02
0.00000000e+00
0.00000000e+00
0.00000000e+00
9.17657568e+02
4.37977024e+02
6.14094449e+02
1.13910461e+03
9.72751538e+02
5.48033839e+02
1.10512900e+03
0.00000000e+00
7.15969894e+02
5.04277449e+02
7.35179269e+02
9.65079508e+02
0.00000000e+00
9.23112242e+02
1.70196444e+03
1.22443576e+03
1.10637033e+03
1.86645689e+03
9.88124863e+02
4.90282699e+02
7.77318855e+02
1.22749711e+03
7.82559573e+02
8.83410468e+02
1.01519883e+03
1.04480093e+03
0.00000000e+00
9.89797295e+02
1.04694970e+03
1.66128801e+03
1.09131955e+03
8.36991443e+02
6.91264661e+02
0.00000000e+00
1.33332240e+03
1.12275958e+03
1.45142623e+03
1.26606754e+03
2.17865282e+03
1.47448702e+03
1.58866715e+03
9.72520120e+02
1.58572159e+03
9.62986739e+02
1.78191108e+03
1.85577468e+03
2.01938548e+03
1.42965119e+03
1.32396289e+03
1.57680669e+03
2.13654068e+03
1.76314953e+03
1.94311563e+03
9.40046372e+02
1.17304255e+03
1.30524236e+03
1.01326726e+03
1.77290124e+03
1.13672555e+03
1.63347214e+03
8.55723940e+02
1.41178058e+03
7.81475032e+02
1.65995902e+03
8.82982002e+02
9.61440394e+02
1.13139780e+03
1.04700178e+03
1.98500990e+03
1.91887459e+03
1.72812345e+03
1.99364786e+03
1.41843135e+03
2.07349251e+03
2.23213232e+03
1.09459924e+03
1.26474104e+03
1.53189347e+03
2.40444755e+03
2.17143894e+03
1.71540318e+03
1.80275087e+03
7.11332594e+02
1.01035113e+03
7.25107665e+02
1.24659438e+03
1.01881573e+03
2.03825017e+03
1.63025874e+03
9.86850480e+02
1.91396156e+03
8.29711896e+02
1.88402832e+03
1.97717563e+03
1.73158780e+03
1.99915857e+03
9.75891718e+02
1.03559972e+03
1.37021218e+03
2.36056245e+03
1.18661608e+03
1.48040096e+03
1.28933195e+03
9.20212109e+02
8.50362970e+02
1.70756413e+03
1.53462516e+03
1.49988151e+03
1.24209018e+03
1.72544210e+03
1.72402430e+03
1.60813018e+03
1.82685713e+03
1.34053740e+03
2.15371727e+03
2.11041453e+03
2.12117300e+03
0.00000000e+00
0.00000000e+00
1.32781984e+03
2.34279016e+03
1.91592640e+03
1.54472958e+03
1.07035059e+03
5.19818105e+02
1.25035767e+03
1.40757182e+03
1.43556873e+03
1.00221078e+03
0.00000000e+00
1.69151187e+03
1.55546202e+03
1.38495558e+03
2.13639513e+03
1.41386333e+03
1.60633478e+03
2.27532812e+03
1.02259381e+03
0.00000000e+00
0.00000000e+00
0.00000000e+00
1.51613802e+03
1.63431108e+03
1.50023428e+03
1.37687456e+03
5.81896255e+02
2.17000547e+03
7.39651516e+02
8.54401331e+02
1.37430659e+03
1.13423412e+03
1.38321423e+03
1.42995562e+03
1.62841225e+03
1.55651223e+03
1.75439445e+03
2.05478634e+03
1.81147217e+03
0.00000000e+00
0.00000000e+00
0.00000000e+00
1.04670256e+03
2.20698421e+03
1.12385326e+03
1.32951254e+03
8.52222215e+02
1.97895933e+03
1.56984546e+03
1.27355836e+03
1.16328696e+03
1.14992557e+03
1.33857842e+03
2.20409917e+03
2.04463959e+03
1.97547023e+03
1.39798860e+03
2.07212401e+03
1.32494902e+03
2.40092660e+03
0.00000000e+00
0.00000000e+00
6.91869631e+02
1.11109715e+03
1.64016562e+03
9.61408059e+02
1.77137003e+03
1.95689994e+03
1.59874123e+03
2.22570352e+03
0.00000000e+00
1.04071916e+03
1.27073733e+03
1.97907935e+03
1.23262278e+03
2.13788955e+03
1.45269019e+03
2.21701574e+03
1.19332151e+03
1.22868169e+03
2.20011084e+03
0.00000000e+00
0.00000000e+00
1.19819879e+03
1.08766720e+03
1.44223355e+03
1.03321221e+03
1.68039694e+03
1.08159550e+03
1.10234529e+03
9.95158304e+02
2.23301847e+03
2.16710243e+03
9.49203818e+02
2.03280629e+03
8.95739396e+02
1.81373893e+03
1.50682865e+03
1.03473949e+03
1.71668949e+03
9.68811425e+02
2.22163044e+03
0.00000000e+00
0.00000000e+00
1.16720112e+03
1.22930697e+03
2.12082644e+03
1.14621373e+03
1.21544859e+03
2.08718183e+03
8.85690618e+02
1.00924506e+03
2.07980652e+03
2.02857020e+03
1.17270348e+03
1.10504749e+03
9.96710990e+02
2.16192541e+03
1.55486240e+03
1.46875766e+03
1.25638232e+03
1.27937838e+03
1.66501849e+03
0.00000000e+00
4.95136660e+02
0.00000000e+00
0.00000000e+00
2.35380083e+03
1.23532098e+03
2.30215239e+03
2.29304503e+03
2.07335096e+03
1.71279956e+03
2.24808856e+03
1.83373995e+03
1.12288253e+03
1.59716218e+03
1.46613127e+03
1.67865172e+03
2.09081576e+03
1.90355473e+03
1.89744306e+03
1.39442116e+03
2.08640511e+03
0.00000000e+00
0.00000000e+00
8.61891004e+02
1.19202004e+03
2.00529059e+03
1.11635191e+03
2.16458108e+03
1.02129880e+03
1.22987808e+03
2.02079870e+03
1.26529837e+03
1.41511566e+03
9.69255819e+02
1.78196776e+03
2.07476980e+03
1.33334014e+03
1.33191372e+03
1.44120917e+03
1.71286287e+03
1.34079536e+03
1.22320789e+03
0.00000000e+00
7.01732277e+02
8.54897503e+02
1.02527532e+03
1.34568712e+03
1.36455839e+03
1.67053726e+03
1.60719837e+03
1.32125603e+03
4.40860583e+02
1.75407856e+03
9.40625881e+02
1.37496390e+03
1.25313581e+03
2.21936763e+03
1.34863369e+03
1.63003676e+03
1.85958532e+03
1.82157287e+03
1.36701297e+03
1.57385488e+03
1.19437677e+03
0.00000000e+00
0.00000000e+00
1.02985706e+03
1.87774152e+03
1.47085292e+03
2.37720297e+03
2.12945868e+03
1.78611080e+03
8.33343982e+02
2.10514683e+03
1.56667834e+03
1.48651232e+03
2.23997998e+03
1.94700947e+03
1.33153571e+03
1.42918421e+03
2.09971588e+03
2.27856860e+03
1.48206403e+03
1.34341916e+03
1.15133998e+03
7.49317376e+02
0.00000000e+00
1.41895432e+03
2.54852327e+03
1.87373217e+03
2.30012391e+03
2.45727435e+03
2.21020333e+03
7.14704897e+02
1.39825540e+03
1.83037394e+03
2.38897255e+03
1.39854771e+03
2.42400729e+03
1.07848929e+03
2.16418508e+03
2.36061993e+03
2.16349916e+03
1.54756236e+03
2.43768614e+03
1.14984811e+03
0.00000000e+00
0.00000000e+00
1.11964137e+03
1.22745423e+03
1.06864015e+03
2.32109645e+03
1.76610654e+03
1.82096574e+03
1.55413078e+03
5.83930107e+02
4.89820254e+02
5.07213020e+02
7.44929576e+02
1.11857390e+03
8.71009811e+02
1.34882318e+03
1.54709158e+03
1.83643943e+03
1.43822366e+03
1.29801351e+03
1.17106716e+03
7.07136859e+02
0.00000000e+00
1.13106205e+03
1.83071349e+03
1.89176467e+03
1.40955335e+03
2.29988212e+03
1.03030893e+03
1.76689182e+03
2.38874660e+03
2.21961189e+03
2.30045447e+03
2.08013813e+03
2.31396963e+03
8.63298370e+02
1.24784752e+03
1.59918757e+03
1.75013927e+03
1.82907393e+03
2.45319046e+03
1.07157888e+03
0.00000000e+00
0.00000000e+00
1.13383519e+03
7.74186524e+02
1.02521815e+03
1.79591020e+03
1.43185383e+03
1.04258780e+03
0.00000000e+00
0.00000000e+00
0.00000000e+00
0.00000000e+00
0.00000000e+00
0.00000000e+00
0.00000000e+00
9.91437805e+02
7.82015729e+02
1.33835670e+03
9.73936517e+02
1.60208235e+03
9.03615228e+02
7.29853226e+02
0.00000000e+00
1.03885890e+03
1.17236508e+03
9.80741029e+02
0.00000000e+00
0.00000000e+00
0.00000000e+00
0.00000000e+00
6.08570963e+02
7.12669236e+02
0.00000000e+00
0.00000000e+00
0.00000000e+00
0.00000000e+00
0.00000000e+00
9.72978264e+02
8.79600449e+02
0.00000000e+00
0.00000000e+00
0.00000000e+00
0.00000000e+00
1.10419870e+03
8.70618604e+02
0.00000000e+00
1.42183447e+03
8.88922109e+02
6.51586751e+02