# vtk DataFile Version 3.0
MPS 3D Simulation Step 2500
ASCII
DATASET UNSTRUCTURED_GRID
POINTS 20213 double
-1.09959176e-03 2.71367246e-04 -1.03865330e-03
-9.77686793e-04 2.50594863e-04 -1.14542806e-03
-8.73498703e-04 2.64800839e-04 -1.22258564e-03
-8.87861503e-04 3.52309104e-04 -1.23572463e-03
-7.49752695e-04 2.93292183e-04 -1.30015557e-03
-6.25188757e-04 3.59796720e-04 -1.37640304e-03
-4.76242878e-04 2.26118212e-04 -1.39026758e-03
-3.89377791e-04 2.26487443e-04 -1.41515613e-03
-3.38967591e-04 1.19018004e-04 -1.35256331e-03
-1.43411662e-04 4.61853330e-04 -1.37791546e-03
4.78036770e-05 1.43491242e-04 -1.32828750e-03
-6.64346227e-05 1.24194582e-04 -1.33732559e-03
-8.26754013e-05 1.47266517e-04 -1.42230953e-03
1.57024585e-04 1.35164484e-04 -1.41299722e-03
3.17264912e-04 1.50613137e-04 -1.40027312e-03
6.13858533e-04 1.68035983e-04 -1.29890923e-03
5.48838340e-04 1.14221923e-04 -1.26859403e-03
6.98329155e-04 1.91240473e-04 -1.26965417e-03
8.07527193e-04 1.25727394e-04 -1.14933058e-03
8.67466234e-04 1.51338492e-04 -9.87548604e-04
1.04930029e-03 1.72538600e-04 -9.66695707e-04
-1.03904177e-03 2.80074377e-04 -1.10456988e-03
-9.39971679e-04 3.01510277e-04 -1.19156408e-03
-9.53308755e-04 3.88371263e-04 -1.19814505e-03
-6.83874424e-04 3.09781634e-04 -1.33655656e-03
-6.82354637e-04 4.82619695e-04 -1.34590243e-03
-6.92948735e-04 3.98234721e-04 -1.34403912e-03
-5.55100003e-04 3.85843959e-04 -1.40766870e-03
-3.67865664e-04 3.01416781e-04 -1.45010212e-03
-2.33795158e-04 1.96743368e-04 -1.43729516e-03
-1.37405310e-04 2.00211247e-04 -1.44847620e-03
4.31049857e-05 1.98211223e-04 -1.45280172e-03
1.71982512e-04 1.98565158e-04 -1.44565991e-03
4.18563263e-04 2.71024289e-04 -1.42236922e-03
4.02795189e-04 3.57260081e-04 -1.44878205e-03
4.82168437e-04 2.17284311e-04 -1.37919839e-03
5.40258936e-04 1.85010630e-04 -1.34073854e-03
6.49085039e-04 2.34412666e-04 -1.31779362e-03
6.55407257e-04 1.24954905e-04 -1.24103764e-03
7.19391793e-04 2.82887753e-04 -1.29906351e-03
8.74678251e-04 2.57198076e-04 -1.19073874e-03
1.02351392e-03 2.11150053e-04 -1.02965013e-03
-1.00371697e-03 3.44144176e-04 -1.15074275e-03
-9.98251685e-04 4.37175830e-04 -1.16317532e-03
-9.49786046e-04 4.88942658e-04 -1.19091134e-03
-8.21936306e-04 3.23004352e-04 -1.26840074e-03
-7.61234641e-04 3.79290777e-04 -1.30791395e-03
-6.17995819e-04 4.44992294e-04 -1.37896786e-03
-4.42661497e-04 2.95563426e-04 -1.42627508e-03
-5.24398823e-04 3.00923169e-04 -1.40346762e-03
-3.25666794e-04 3.60390441e-04 -1.47418503e-03
-2.05311350e-04 2.56428863e-04 -1.46720285e-03
-2.32990825e-05 3.99543774e-04 -1.49814985e-03
2.02598845e-04 2.65621341e-04 -1.46431530e-03
3.45491134e-04 3.08163018e-04 -1.45165123e-03
4.89845058e-04 2.98226392e-04 -1.40810623e-03
3.42450922e-04 2.21425223e-04 -1.42936135e-03
5.56454314e-04 3.36977593e-04 -1.39155161e-03
6.87259701e-04 3.46564750e-04 -1.33426662e-03
6.22326730e-04 3.04983169e-04 -1.35348301e-03
8.02935400e-04 2.86577285e-04 -1.25164655e-03
8.76379049e-04 1.78930921e-04 -1.14347141e-03
8.79599620e-04 1.18128494e-04 -1.07574477e-03
-1.11488077e-03 4.23610730e-04 -1.05316807e-03
-1.05644753e-03 4.22210979e-04 -1.11717600e-03
-8.90567130e-04 4.42172959e-04 -1.23147136e-03
-7.52759623e-04 4.68097099e-04 -1.30800985e-03
-5.39974589e-04 4.72224008e-04 -1.41012181e-03
-4.80419212e-04 3.70405033e-04 -1.43363406e-03
-4.01587247e-04 3.87795178e-04 -1.45540456e-03
-2.51450949e-04 3.22274301e-04 -1.48185486e-03
-1.72542681e-04 3.33810215e-04 -1.49072615e-03
-1.16972287e-04 2.74854368e-04 -1.47714575e-03
6.59339010e-05 4.36917322e-04 -1.49591711e-03
7.69702699e-05 1.28693220e-04 -1.41374905e-03
1.12530975e-04 3.11915106e-04 -1.48250387e-03
1.91176799e-04 3.40551602e-04 -1.48259893e-03
3.26175704e-04 4.06073237e-04 -1.47188038e-03
5.65815220e-04 2.48660604e-04 -1.36037661e-03
5.44620424e-04 4.34642763e-04 -1.40603444e-03
8.64361676e-04 3.32625901e-04 -1.22606315e-03
9.36763650e-04 2.79195775e-04 -1.15264762e-03
9.41362466e-04 2.12953539e-04 -1.11358568e-03
1.00443042e-03 2.62432901e-04 -1.08139499e-03
-1.13876969e-03 5.02620875e-04 -1.01431924e-03
-8.84612229e-04 5.31060731e-04 -1.22133877e-03
-8.24202962e-04 4.14650888e-04 -1.27282435e-03
-5.96081741e-04 5.26865494e-04 -1.38195873e-03
-4.77151627e-04 5.31608288e-04 -1.42663731e-03
-4.67288846e-04 4.47881988e-04 -1.43866921e-03
-2.56210269e-04 3.99289678e-04 -1.48891448e-03
-1.78279719e-04 4.21488157e-04 -1.49602008e-03
-1.00835041e-04 3.68110179e-04 -1.49781641e-03
-1.39181782e-05 4.81111147e-04 -1.49711992e-03
8.12713803e-05 5.14295748e-04 -1.49199913e-03
4.71568729e-05 3.57659618e-04 -1.49303866e-03
1.61043446e-04 4.78465333e-04 -1.48715289e-03
3.08403661e-04 5.67325733e-04 -1.46070815e-03
2.31879742e-04 4.28949813e-04 -1.48313125e-03
3.93636225e-04 4.39519669e-04 -1.45740267e-03
4.80177417e-04 3.74881604e-04 -1.42473894e-03
7.72326671e-04 3.44553257e-04 -1.28990445e-03
9.25138226e-04 3.57743608e-04 -1.18650453e-03
9.87673256e-04 3.33374755e-04 -1.12562235e-03
9.63043352e-04 4.18152894e-04 -1.16108451e-03
-1.12707396e-03 5.87682830e-04 -1.00622888e-03
-1.01821161e-03 5.18676800e-04 -1.13316278e-03
-8.13623061e-04 5.85022207e-04 -1.25307251e-03
-8.18135447e-04 5.00898263e-04 -1.26500118e-03
-5.36111916e-04 5.82477554e-04 -1.39955648e-03
-3.18405280e-04 5.30725823e-04 -1.47223035e-03
-3.34015106e-04 4.44631064e-04 -1.47382608e-03
-2.53809490e-04 4.83359887e-04 -1.48633100e-03
-1.03122079e-04 4.54654698e-04 -1.49829940e-03
-8.35914315e-05 5.35569153e-04 -1.49543121e-03
3.41228656e-06 5.62023733e-04 -1.49256181e-03
1.41246840e-04 3.99063875e-04 -1.49095365e-03
2.30333843e-04 5.29528328e-04 -1.47671806e-03
3.01133190e-04 4.81936771e-04 -1.47406627e-03
2.73022574e-04 3.47576423e-04 -1.47421848e-03
4.64960372e-04 5.50035703e-04 -1.42599501e-03
4.66918687e-04 4.57169661e-04 -1.43458090e-03
6.14583256e-04 3.94870810e-04 -1.37485439e-03
8.30277789e-04 3.95615508e-04 -1.26041505e-03
8.86984832e-04 4.34541466e-04 -1.21853077e-03
1.03239957e-03 3.95692003e-04 -1.09942678e-03
-1.08186735e-03 5.72246435e-04 -1.06725828e-03
-1.08062663e-03 4.97304321e-04 -1.08414737e-03
-8.85540793e-04 6.17288170e-04 -1.20316660e-03
-6.70812792e-04 5.58303166e-04 -1.34314534e-03
-6.12041315e-04 6.14533009e-04 -1.36185148e-03
-4.06183442e-04 5.77478738e-04 -1.44584089e-03
-2.34684225e-04 5.77307660e-04 -1.47986599e-03
-1.75408683e-04 5.10774383e-04 -1.49174797e-03
-1.43447879e-04 5.93279359e-04 -1.48882594e-03
-6.30732913e-05 6.16423471e-04 -1.49121867e-03
7.53516671e-05 6.04899062e-04 -1.48345690e-03
1.51468112e-04 5.67360851e-04 -1.48142625e-03
2.33526052e-04 6.14634862e-04 -1.46420038e-03
3.10487412e-04 6.49705196e-04 -1.44800713e-03
3.94489837e-04 5.95211795e-04 -1.44059124e-03
6.08982666e-04 4.84807043e-04 -1.37753453e-03
6.73892508e-04 5.23905190e-04 -1.34632501e-03
7.49202137e-04 4.16235138e-04 -1.30990559e-03
6.79151887e-04 4.33014982e-04 -1.34658790e-03
1.01319980e-03 4.74753243e-04 -1.11793015e-03
9.83108430e-04 5.49541668e-04 -1.13394646e-03
-1.11771547e-03 6.70052444e-04 -9.85103367e-04
-1.01916342e-03 6.01640611e-04 -1.11476300e-03
-9.54684083e-04 5.70350183e-04 -1.16953365e-03
-7.44937937e-04 5.56389934e-04 -1.29796798e-03
-4.68451439e-04 6.27346132e-04 -1.41684681e-03
-3.31326191e-04 6.04738773e-04 -1.46364192e-03
-2.85409451e-04 6.63359833e-04 -1.46388029e-03
-1.96321755e-04 6.55417062e-04 -1.47748571e-03
-1.14654944e-04 6.82914605e-04 -1.47858493e-03
6.24727843e-06 6.58132920e-04 -1.48036032e-03
7.73042125e-05 6.95357858e-04 -1.46773061e-03
1.54668801e-04 6.53113033e-04 -1.46724032e-03
2.33072919e-04 7.05027417e-04 -1.44741783e-03
3.89726419e-04 6.72955536e-04 -1.42928825e-03
4.68124043e-04 6.37597761e-04 -1.41397244e-03
5.37922943e-04 5.27424011e-04 -1.40229243e-03
6.00578992e-04 5.75571971e-04 -1.37457703e-03
7.35358867e-04 5.88445515e-04 -1.30652320e-03
8.11163909e-04 4.70750505e-04 -1.27162097e-03
9.36904614e-04 4.97440148e-04 -1.17705390e-03
1.01092046e-03 6.71394547e-04 -1.09167667e-03
-1.06752436e-03 6.51819085e-04 -1.05148246e-03
-1.00588830e-03 6.84217894e-04 -1.10280972e-03
-9.48958309e-04 6.53640873e-04 -1.15448435e-03
-6.20187490e-04 6.94741302e-04 -1.33963592e-03
-5.42862390e-04 6.64992047e-04 -1.38074817e-03
-3.91035034e-04 6.65170912e-04 -1.43514139e-03
-3.43061996e-04 7.25827842e-04 -1.43669667e-03
-2.33725379e-04 7.22913108e-04 -1.46118727e-03
-1.51948845e-04 7.48861894e-04 -1.46204663e-03
-4.23441500e-05 7.20312257e-04 -1.47154694e-03
2.46518881e-05 7.61232193e-04 -1.45692860e-03
1.56197855e-04 7.37225917e-04 -1.45184446e-03
2.07920862e-04 7.91871621e-04 -1.43141968e-03
3.12729762e-04 7.30365073e-04 -1.43046560e-03
4.14888657e-04 7.37785202e-04 -1.41064192e-03
5.39421257e-04 6.30356984e-04 -1.38862341e-03
5.70007236e-04 7.29652600e-04 -1.35897274e-03
6.67980327e-04 6.07878920e-04 -1.34191801e-03
7.41408218e-04 5.00540855e-04 -1.30881029e-03
8.65355168e-04 5.16951518e-04 -1.22936627e-03
9.56333793e-04 6.28710237e-04 -1.14149252e-03
-1.06058374e-03 7.29973402e-04 -1.03024446e-03
-9.45237489e-04 7.46397540e-04 -1.13021159e-03
-8.22152617e-04 6.71461214e-04 -1.23125005e-03
-6.87158578e-04 6.36182506e-04 -1.31840714e-03
-6.13021042e-04 7.76796259e-04 -1.31692589e-03
-4.67132420e-04 7.07836306e-04 -1.39828166e-03
-4.10524915e-04 7.63289795e-04 -1.40087713e-03
-2.85048246e-04 7.75351768e-04 -1.43556959e-03
-2.02928002e-04 8.05942988e-04 -1.43706082e-03
-8.39111988e-05 7.90980351e-04 -1.45033107e-03
-1.48515951e-05 8.31097721e-04 -1.43352431e-03
9.93551797e-05 7.88886193e-04 -1.44307212e-03
1.51445200e-04 8.54449634e-04 -1.41317870e-03
2.81301237e-04 8.08668850e-04 -1.41696475e-03
3.60977679e-04 8.01158513e-04 -1.40348842e-03
4.98266528e-04 7.15802925e-04 -1.38731846e-03
5.94949049e-04 8.21116563e-04 -1.31355961e-03
6.10278896e-04 6.61761785e-04 -1.35728996e-03
7.70322168e-04 6.57635274e-04 -1.27204803e-03
9.03227850e-04 5.77438244e-04 -1.19023197e-03
9.87599645e-04 7.56195363e-04 -1.08219248e-03
-1.00243673e-03 7.60517813e-04 -1.07682360e-03
-9.30011525e-04 8.36649791e-04 -1.09663206e-03
[...]
POINT_DATA 20213
SCALARS pressure double 1
LOOKUP_TABLE default
9.32038615e+02
8.36059321e+02
0.00000000e+00
0.00000000e+00
9.85792170e+02
0.00000000e+00
0.00000000e+00
0.00000000e+00
0.00000000e+00
9.93114883e+02
5.98364460e+02
6.13289328e+02
5.50844288e+02
0.00000000e+00
0.00000000e+00
0.00000000e+00
3.84080399e+02
0.00000000e+00
5.14888063e+02
6.57998471e+02
0.00000000e+00
0.00000000e+00
0.00000000e+00
0.00000000e+00
0.00000000e+00
1.07070030e+03
0.00000000e+00
0.00000000e+00
0.00000000e+00
6.68020960e+02
0.00000000e+00
0.00000000e+00
0.00000000e+00
0.00000000e+00
1.15444180e+03
4.33449362e+02
0.00000000e+00
0.00000000e+00
0.00000000e+00
0.00000000e+00
6.13546446e+02
0.00000000e+00
0.00000000e+00
0.00000000e+00
0.00000000e+00
1.00766681e+03
1.15387577e+03
8.04375045e+02
0.00000000e+00
0.00000000e+00
0.00000000e+00
0.00000000e+00
0.00000000e+00
0.00000000e+00
1.03941024e+03
0.00000000e+00
0.00000000e+00
0.00000000e+00
0.00000000e+00
0.00000000e+00
0.00000000e+00
6.92326606e+02
5.77176564e+02
0.00000000e+00
0.00000000e+00
9.59790748e+02
1.12731752e+03
0.00000000e+00
0.00000000e+00
0.00000000e+00
6.65587791e+02
8.42476838e+02
7.70422121e+02
0.00000000e+00
0.00000000e+00
0.00000000e+00
1.04658258e+03
1.43714559e+03
0.00000000e+00
0.00000000e+00
0.00000000e+00
0.00000000e+00
5.98238134e+02
0.00000000e+00
0.00000000e+00
8.43874327e+02
1.16370774e+03
0.00000000e+00
8.84869824e+02
0.00000000e+00
0.00000000e+00
7.37127175e+02
7.99957237e+02
9.26153050e+02
1.09066302e+03
0.00000000e+00
1.31366004e+03
1.58934056e+03
1.45650225e+03
1.45509911e+03
9.42130737e+02
0.00000000e+00
0.00000000e+00
0.00000000e+00
0.00000000e+00
0.00000000e+00
0.00000000e+00
0.00000000e+00
1.03175803e+03
8.57484167e+02
7.75158883e+02
7.80967557e+02
0.00000000e+00
0.00000000e+00
0.00000000e+00
9.46291843e+02
1.04253687e+03
1.53499274e+03
1.57004298e+03
1.24787125e+03
0.00000000e+00
0.00000000e+00
0.00000000e+00
0.00000000e+00
0.00000000e+00
0.00000000e+00
0.00000000e+00
0.00000000e+00
8.23216682e+02
9.27477310e+02
9.32452073e+02
8.03840400e+02
0.00000000e+00
6.85716037e+02
0.00000000e+00
0.00000000e+00
1.16299453e+03
1.25648457e+03
1.35201822e+03
0.00000000e+00
1.60378117e+03
9.52321721e+02
0.00000000e+00
0.00000000e+00
8.36639922e+02
0.00000000e+00
0.00000000e+00
1.23773685e+03
0.00000000e+00
0.00000000e+00
8.61593426e+02
0.00000000e+00
0.00000000e+00
6.86230888e+02
0.00000000e+00
0.00000000e+00
1.00120065e+03
1.07783614e+03
1.16038047e+03
0.00000000e+00
1.59902013e+03
1.57978030e+03
0.00000000e+00
0.00000000e+00
0.00000000e+00
7.47267647e+02
0.00000000e+00
0.00000000e+00
1.14258295e+03
1.25275954e+03
0.00000000e+00
8.56754348e+02
9.40015840e+02
0.00000000e+00
0.00000000e+00
9.91104483e+02
8.57651360e+02
0.00000000e+00
8.66740165e+02
9.10455013e+02
0.00000000e+00
1.33498063e+03
1.67620541e+03
1.44356862e+03
1.57706837e+03
0.00000000e+00
9.25530727e+02
0.00000000e+00
0.00000000e+00
1.54018665e+03
0.00000000e+00
7.89272593e+02
0.00000000e+00
0.00000000e+00
0.00000000e+00
0.00000000e+00
9.88587544e+02
9.61800771e+02
0.00000000e+00
0.00000000e+00
0.00000000e+00
0.00000000e+00
1.14422192e+03
1.43902914e+03
1.69342026e+03
1.33402662e+03
1.37340853e+03
1.02654027e+03
0.00000000e+00
0.00000000e+00
1.38607019e+03
1.02285759e+03
8.03156481e+02
0.00000000e+00
7.18760366e+02
0.00000000e+00
0.00000000e+00
1.02423316e+03
1.08349430e+03
8.20199439e+02
1.00188129e+03
0.00000000e+00
0.00000000e+00
0.00000000e+00
1.33761168e+03
1.69538507e+03
1.64885338e+03
1.31014897e+03
1.17834942e+03
5.06132369e+02
0.00000000e+00
1.69189694e+03
1.41765393e+03
6.19515966e+02
6.45543964e+02
0.00000000e+00
0.00000000e+00
0.00000000e+00
8.95825640e+02
1.10547171e+03
1.00935779e+03
0.00000000e+00
0.00000000e+00
0.00000000e+00
1.16530505e+03
1.64091335e+03
0.00000000e+00
1.19059054e+03
9.28882267e+02
7.77969516e+02
0.00000000e+00
0.00000000e+00
1.15464987e+03
9.63164767e+02
0.00000000e+00
0.00000000e+00
7.89598456e+02
9.69178040e+02
0.00000000e+00
1.03345015e+03
9.88730103e+02
8.33059744e+02
0.00000000e+00
0.00000000e+00
9.24769081e+02
1.38396045e+03
1.49685190e+03
0.00000000e+00
0.00000000e+00
0.00000000e+00
6.81940468e+02
0.00000000e+00
0.00000000e+00
0.00000000e+00
6.98088706e+02
0.00000000e+00
0.00000000e+00
1.15427296e+03
1.23712963e+03
1.17362013e+03
1.03267055e+03
9.28297583e+02
0.00000000e+00
0.00000000e+00
1.00481354e+03
1.07167034e+03
0.00000000e+00
1.42000546e+03
0.00000000e+00
0.00000000e+00
0.00000000e+00
7.10387947e+02
5.64327177e+02
0.00000000e+00
0.00000000e+00
0.00000000e+00
0.00000000e+00
0.00000000e+00
9.17667775e+02
1.15864505e+03
9.37033587e+02
0.00000000e+00
8.27542661e+02
8.08536033e+02
8.60060050e+02
0.00000000e+00
1.13687875e+03
1.16763675e+03
1.19736418e+03
1.21563490e+03
0.00000000e+00
0.00000000e+00
7.42377447e+02
0.00000000e+00
0.00000000e+00
1.16799808e+03
8.75793701e+02
0.00000000e+00
0.00000000e+00
8.47711991e+02
9.19063954e+02
0.00000000e+00
0.00000000e+00
0.00000000e+00
0.00000000e+00
7.26982978e+02
8.86832000e+02
1.17282317e+03
1.29589330e+03
1.21479316e+03
0.00000000e+00
0.00000000e+00
0.00000000e+00
6.49317773e+02
6.28821343e+02
0.00000000e+00
0.00000000e+00
0.00000000e+00
7.13026364e+02
0.00000000e+00
7.66117036e+02
0.00000000e+00
0.00000000e+00
0.00000000e+00
0.00000000e+00
0.00000000e+00
6.31405988e+02
0.00000000e+00
0.00000000e+00
1.24754768e+03
1.08935915e+03
0.00000000e+00
0.00000000e+00
0.00000000e+00
0.00000000e+00
0.00000000e+00
0.00000000e+00
7.26123209e+02
7.31398655e+02
8.28083522e+02
0.00000000e+00
7.00872121e+02
7.36464910e+02
0.00000000e+00
0.00000000e+00
0.00000000e+00
0.00000000e+00
0.00000000e+00
0.00000000e+00
1.17680162e+03
1.22949484e+03
0.00000000e+00
9.63264221e+02
0.00000000e+00
0.00000000e+00
0.00000000e+00
0.00000000e+00
5.84910045e+02
0.00000000e+00
6.88165610e+02
0.00000000e+00
8.72419766e+02
0.00000000e+00
0.00000000e+00
0.00000000e+00
0.00000000e+00
0.00000000e+00
6.13043450e+02
0.00000000e+00
1.04386451e+03
1.32615605e+03
1.30129688e+03
1.18187617e+03
1.13637044e+03
7.92588971e+02
0.00000000e+00
0.00000000e+00
0.00000000e+00
4.80632846e+02
0.00000000e+00
6.12356783e+02
7.23445094e+02
0.00000000e+00
8.20087927e+02
7.95192312e+02
7.11806529e+02
0.00000000e+00
8.12210770e+02
9.04186634e+02
1.12482694e+03
1.01574486e+03
1.12268242e+03
1.23148277e+03
1.20418530e+03
1.06010092e+03
0.00000000e+00
0.00000000e+00
0.00000000e+00
0.00000000e+00
5.45734736e+02
0.00000000e+00
6.25058658e+02
6.90975852e+02
0.00000000e+00
8.03071883e+02
0.00000000e+00
8.63260878e+02
0.00000000e+00
1.25390602e+03
0.00000000e+00
1.27079514e+03
1.13162108e+03
1.10685066e+03
0.00000000e+00
1.17533582e+03
1.07735791e+03
9.21063393e+02
8.45894282e+02
7.44100564e+02
5.11701599e+02
0.00000000e+00
0.00000000e+00
8.94103356e+02
6.73659800e+02
8.78632819e+02
9.72125332e+02
0.00000000e+00
0.00000000e+00
0.00000000e+00
0.00000000e+00
9.10975663e+02
1.16773873e+03
1.19298968e+03
0.00000000e+00
1.34595796e+03
1.61092855e+03
1.10721283e+03
0.00000000e+00
5.00537273e+02
4.46633481e+02
4.74387513e+02
0.00000000e+00
8.18818084e+02
2.03280102e+03
1.49688458e+03
1.32277211e+03
8.79552765e+02
1.16942563e+03
1.11744049e+03
1.29721392e+03
9.37070384e+02
1.32938433e+03
1.81365388e+03
1.60771623e+03
2.08975221e+03
1.80445255e+03
1.50191701e+03
1.51293684e+03
1.32896384e+03
9.34719146e+02
1.30780126e+03
1.01305766e+03
0.00000000e+00
0.00000000e+00
1.40377365e+03
1.36001975e+03
1.19843738e+03
2.07347232e+03
1.86859587e+03
1.16796949e+03
0.00000000e+00
6.03418928e+02
0.00000000e+00
0.00000000e+00
0.00000000e+00
5.15029031e+02
0.00000000e+00
1.68383382e+03
1.37745757e+03
1.71867708e+03
5.80351011e+02
7.86353984e+02
5.73047557e+02
6.04342464e+02
0.00000000e+00
1.34787975e+03
1.26744595e+03
1.81951330e+03
1.71551729e+03
2.04156412e+03
9.76795737e+02
1.02772158e+03
2.05230941e+03
1.96227534e+03
1.94752849e+03
1.28529077e+03
1.41202532e+03
1.23168642e+03
1.18040176e+03
1.61898634e+03
1.24992169e+03
1.23864474e+03
1.04486505e+03
1.03160656e+03
3.96212686e+02
0.00000000e+00
1.50530033e+03
2.10098676e+03
1.06300237e+03
1.79381150e+03
1.46193717e+03
1.35149612e+03
9.61283987e+02
9.95772898e+02
1.47865001e+03
1.50435433e+03
2.08017708e+03
2.07550989e+03
2.08392088e+03
1.98040480e+03
1.48995020e+03
1.52218055e+03
1.45520096e+03
1.26478249e+03
3.46321511e+02
0.00000000e+00
0.00000000e+00
1.62318003e+03
1.26647088e+03
9.04043551e+02
1.32421521e+03
8.45641188e+02
1.49041431e+03
1.22811573e+03
1.13283738e+03
1.00744662e+03
1.59938074e+03
1.05816433e+03
1.50338851e+03
1.45907548e+03
1.99988258e+03
1.55707391e+03
1.90652763e+03
1.17022335e+03
7.69947326e+02
9.02952388e+02
0.00000000e+00
7.19159565e+02
1.49238567e+03
1.08768888e+03
1.07891482e+03
1.52425594e+03
9.02239436e+02
1.26630991e+03
1.30198092e+03
1.07136881e+03
1.86949724e+03
9.88831161e+02
1.51297067e+03
1.84991949e+03
1.36769548e+03
1.56736084e+03
1.41994367e+03
1.17567543e+03
9.16952648e+02
1.12815352e+03
8.46558239e+02
0.00000000e+00
9.15426441e+02
1.36920417e+03
8.70631286e+02
1.12532099e+03
1.18773952e+03
1.16945776e+03
1.14949150e+03
1.58637653e+03
1.10713411e+03
1.34626650e+03
1.22258685e+03
1.30659745e+03
1.86344729e+03
1.38913041e+03
1.48981261e+03
1.58811970e+03
8.13204066e+02
7.87538506e+02
8.60874271e+02
7.16983342e+02
0.00000000e+00
1.12462183e+03
1.38362770e+03
6.89166540e+02
2.06145372e+03
1.90561447e+03
1.19288854e+03
1.24658016e+03
1.31585976e+03
1.79194662e+03
2.16026377e+03
1.66529846e+03
1.91347827e+03
1.88400416e+03
1.44502302e+03
1.40967617e+03
1.15957597e+03
1.95127493e+03
1.67011524e+03
0.00000000e+00
8.31628727e+02
0.00000000e+00
1.07844090e+03
1.41007016e+03
0.00000000e+00
8.43240989e+02
9.98533708e+02
1.15210618e+03
1.05768771e+03
8.55469819e+02
1.32798596e+03
1.11809329e+03
1.07302207e+03
9.41054243e+02
1.71273376e+03
1.20397132e+03
1.26009584e+03
1.32871665e+03
8.83279258e+02
1.00734069e+03
1.20704433e+03
3.87879029e+02
0.00000000e+00
1.54918553e+03
1.20849177e+03
0.00000000e+00
1.18107939e+03
9.58483942e+02
1.11769052e+03
1.11554079e+03
1.17753612e+03
1.21059260e+03
1.61418449e+03
1.32713674e+03
1.57698075e+03
2.20737702e+03
1.55104362e+03
1.26156030e+03
9.96772334e+02
1.35874705e+03
1.97331857e+03
0.00000000e+00
8.15585352e+02
0.00000000e+00
1.52855914e+03
1.20972523e+03
0.00000000e+00
8.84913840e+02
9.32514297e+02
1.06148076e+03
8.68551208e+02
9.90654748e+02
1.78244496e+03
1.21077665e+03
1.90505331e+03
1.33895249e+03
1.48228888e+03
1.30885851e+03
1.41263565e+03
9.14142380e+02
7.76961659e+02
6.86821345e+02
8.89315840e+02
2.72009533e+02
0.00000000e+00
1.66584101e+03
1.14188841e+03
0.00000000e+00
1.18803332e+03
1.47371271e+03
9.97453063e+02
1.02608888e+03
1.47811859e+03
2.09626392e+03
9.86549838e+02
1.23669150e+03
1.69840477e+03
2.12688309e+03
1.56794290e+03
1.17163098e+03
1.04371916e+03
1.20781432e+03
1.60845914e+03
0.00000000e+00
1.25116403e+03
0.00000000e+00
1.37251519e+03
9.45516825e+02
0.00000000e+00
1.23946054e+03
9.72444780e+02
9.83333060e+02
8.65839029e+02
1.05593563e+03
1.47817214e+03
7.87449790e+02
1.00404367e+03
1.02850924e+03
1.24008774e+03
1.09044420e+03
1.33085663e+03
8.09807354e+02
1.19473751e+03
1.05330211e+03
0.00000000e+00
6.38309699e+02
0.00000000e+00
1.44549480e+03
8.61737452e+02
8.89092563e+02
9.72679655e+02
1.15079979e+03
1.00372801e+03
1.36419021e+03
1.72688203e+03
1.10085273e+03
7.68958510e+02
1.49580709e+03
9.95382137e+02
1.27406234e+03
1.18495437e+03
1.36801625e+03
1.07484153e+03
1.37929745e+03
8.53085294e+02
1.03253479e+03
7.01060828e+02
0.00000000e+00
1.18758767e+03
1.06113497e+03
8.31485803e+02
9.24789911e+02
9.55282035e+02
9.92756674e+02
1.01553243e+03
8.54838456e+02
6.98763488e+02
6.97717740e+02
8.01957920e+02
1.43200639e+03
1.24882486e+03
1.35062718e+03
1.34274994e+03
7.55522270e+02
1.25082931e+03
9.32691774e+02
1.16903402e+03
8.05467134e+02
0.00000000e+00
0.00000000e+00
1.14526292e+03
1.46519971e+03
9.67619502e+02
1.56301591e+03
9.31274724e+02
1.27470156e+03
8.14580003e+02
1.31157168e+03
8.92125511e+02
1.24976471e+03
1.01166252e+03
1.36004078e+03
1.35165429e+03
1.55540731e+03
1.37244753e+03
1.61898543e+03
1.17794984e+03
1.39481783e+03
9.63301008e+02
0.00000000e+00
0.00000000e+00
8.49553825e+02
8.89704376e+02
1.10055501e+03
9.73500123e+02
1.13383267e+03
1.04737271e+03
1.07743345e+03
1.38765745e+03
1.06048573e+03
1.38367186e+03
1.19473939e+03
1.47859635e+03
1.46006335e+03
1.36351052e+03
1.24368972e+03
1.13874459e+03
1.31365063e+03
1.02312255e+03
1.07592529e+03
0.00000000e+00
0.00000000e+00
8.38196100e+02
8.40880478e+02
9.20392218e+02
1.22231811e+03
9.87000757e+02
1.11386997e+03
0.00000000e+00
0.00000000e+00
0.00000000e+00
0.00000000e+00
0.00000000e+00
9.53587933e+02
1.23336488e+03
1.22467302e+03
1.20653918e+03
1.26962774e+03
1.09634885e+03
1.07758863e+03
1.14747781e+03
0.00000000e+00
0.00000000e+00
1.37414803e+03
8.53147306e+02
1.11070733e+03
1.03883682e+03
1.23216503e+03
1.29020676e+03
1.34792289e+03
1.37729152e+03
1.31188206e+03
1.36189677e+03
1.34003961e+03
1.49797385e+03
1.25580767e+03
1.13685867e+03
1.14056455e+03
1.13768612e+03
1.14433683e+03
1.34393557e+03
1.52974189e+03
0.00000000e+00
0.00000000e+00
0.00000000e+00
0.00000000e+00
0.00000000e+00
0.00000000e+00
0.00000000e+00
7.91235564e+02
1.14641415e+03
1.20734337e+03
0.00000000e+00
1.28088187e+03
1.20057612e+03
0.00000000e+00
0.00000000e+00
8.75408788e+02
9.73412821e+02
0.00000000e+00
8.87690869e+02
9.03189425e+02
0.00000000e+00
0.00000000e+00
0.00000000e+00
9.64949150e+02
0.00000000e+00
8.95154035e+02
1.03160273e+03
9.54284739e+02
1.06761290e+03
0.00000000e+00
0.00000000e+00
1.01199161e+03
9.63708944e+02
8.10366879e+02
1.68733704e+03
0.00000000e+00
9.63438607e+02
0.00000000e+00
6.84452846e+02
5.40952264e+02
0.00000000e+00
0.00000000e+00
1.20511585e+03
8.80775141e+02
1.99709162e+03
1.22084729e+03
1.19105877e+03
1.77891539e+03
1.06447185e+03
9.64483261e+02
9.28419684e+02
1.22576136e+03
5.17605403e+02
1.14016133e+03
1.42529643e+03
9.60432361e+02
0.00000000e+00
1.45810539e+03
1.20891571e+03
1.41655310e+03
9.27030190e+02
7.02929960e+02
1.65649361e+02
0.00000000e+00
0.00000000e+00
1.61469806e+03
1.55087643e+03
1.65881141e+03
2.02699909e+03
1.65716533e+03
1.78028975e+03
1.18789033e+03
1.67314757e+03
1.56021070e+03
2.13463394e+03
1.72995353e+03
1.83293936e+03
1.53347976e+03
1.45448577e+03
1.39941380e+03
1.97463495e+03
1.84255205e+03
1.43985744e+03
6.27178265e+02
0.00000000e+00
0.00000000e+00
1.60052470e+03
1.70241972e+03
1.83417036e+03
1.31434720e+03
1.87790788e+03
1.63987814e+03
1.90336055e+03
1.85182348e+03
1.06746868e+03
1.01680805e+03
1.27129694e+03
1.47233871e+03
2.03192375e+03
1.98584715e+03
1.86763146e+03
1.55961026e+03
1.30785878e+03
1.78394227e+03
1.99602583e+03
0.00000000e+00
0.00000000e+00
1.91420406e+03
2.21179051e+03
2.12292888e+03
1.51674900e+03
1.60778174e+03
1.72796582e+03
1.23526862e+03
1.92262662e+03
1.61863453e+03
1.81978144e+03
2.13419709e+03
1.84649508e+03
1.92118719e+03
1.94587225e+03
5.95679847e+02
1.69404241e+03
1.97800675e+03
1.63092996e+03
1.80881205e+03
0.00000000e+00
0.00000000e+00
1.47916087e+03
2.14412032e+03
1.35223748e+03
1.30093930e+03
1.09861365e+03
1.55539572e+03
1.64160325e+03
1.79316769e+03
1.56697739e+03
1.95348792e+03
1.36782826e+03
1.95715208e+03
2.06462465e+03
1.76906698e+03
1.56628719e+03
1.67805397e+03
1.86604164e+03
1.91974337e+03
2.11489611e+03
5.84680609e+02
1.05414293e+03
1.56742364e+03
2.12844152e+03
2.06308725e+03
1.10293171e+03
1.90300219e+03
8.92347252e+02
1.42677851e+03
1.13594472e+03
1.61728764e+03
1.99816395e+03
2.15522000e+03
1.70884068e+03
1.23025971e+03
1.44779925e+03
1.99747348e+03
1.15013293e+03
1.52693838e+03
1.95934267e+03
8.39440875e+02
0.00000000e+00
0.00000000e+00
1.42392235e+03
1.55895853e+03
1.78732600e+03
1.38891670e+03
1.50921719e+03
1.04502230e+03
2.20206956e+03
2.15202091e+03
1.98379888e+03
1.61686370e+03
1.78564676e+03
1.66154081e+03
1.74328112e+03
1.61033065e+03
1.35567959e+03
1.74621365e+03
1.85232816e+03
1.75401697e+03
0.00000000e+00
0.00000000e+00
1.20546929e+03
0.00000000e+00
2.16463451e+03
1.27351229e+03
1.46316600e+03
1.95162865e+03
1.90382435e+03
2.05237235e+03
1.15303525e+03
1.46360690e+03
1.03375801e+03
1.43280276e+03
2.12149334e+03
1.87408831e+03
1.81232416e+03
2.11198419e+03
1.97255122e+03
1.31610570e+03
2.22191193e+03
0.00000000e+00
0.00000000e+00
1.59261451e+03
1.46933953e+03
1.76789642e+03
9.14762405e+02
1.64940836e+03
1.78188735e+03
1.66032034e+03
2.20290383e+03
2.19042749e+03
1.28506035e+03
2.22107403e+03
2.12278204e+03
1.59694634e+03
2.08011032e+03
1.49422170e+03
2.08162433e+03
9.88063774e+02
1.03378649e+03
2.09080746e+03
0.00000000e+00
0.00000000e+00
1.66102221e+03
0.00000000e+00
1.41791273e+03
9.90950633e+02
1.51204521e+03
9.82285442e+02
1.20679926e+03
1.19477619e+03
2.13697469e+03
2.04429452e+03
2.01888683e+03
2.13912114e+03
2.14645300e+03
1.57602324e+03
1.40236901e+03
1.29373210e+03
1.49434023e+03
4.39336844e+02
2.19118253e+03
0.00000000e+00
0.00000000e+00
0.00000000e+00
1.37295289e+03
1.84544096e+03
9.16624906e+02
1.11839971e+03
2.20927475e+03
1.25838060e+03
2.19787846e+03
1.86151620e+03
2.06544008e+03
1.91589252e+03
1.14112523e+03
2.16123226e+03
2.05117351e+03
1.33484200e+03
1.40171545e+03
1.07990152e+03
9.20922250e+02
1.90992179e+03
0.00000000e+00
0.00000000e+00
1.51057965e+03
1.58966686e+03
2.03631485e+03
9.35311919e+02
1.97714170e+03
2.12684291e+03
2.03607646e+03
1.76699480e+03
1.97527723e+03
1.89092556e+03
1.83996662e+03
1.85815059e+03
2.17715625e+03
1.56398967e+03
2.03281408e+03
1.60291088e+03
1.66860828e+03
7.24050366e+02
2.04862661e+03
0.00000000e+00
0.00000000e+00
1.63925118e+03
0.00000000e+00
1.74897279e+03
1.13573936e+03
1.61419983e+03
1.18772477e+03
1.01675642e+03
1.84664165e+03
1.28492789e+03
1.54371262e+03
2.22233620e+03
2.01736483e+03
1.81927936e+03
1.38325992e+03
1.19835208e+03
1.27168529e+03
1.65681601e+03
1.36796403e+03
9.66689575e+02
0.00000000e+00
0.00000000e+00
1.61326821e+03
1.29997465e+03
1.43074359e+03
1.12824873e+03
1.31520372e+03
1.15689209e+03
1.10282286e+03
8.34888188e+02
1.62002911e+03
1.20542114e+03
1.52362089e+03
1.67510212e+03
2.04468779e+03
1.32490379e+03
1.40655018e+03
1.71736504e+03
2.18521536e+03
1.26492828e+03
1.42053190e+03
6.69062448e+02
0.00000000e+00
1.43747289e+03
1.28172219e+03
1.74070126e+03
1.35828681e+03
2.05680837e+03
1.74272017e+03
1.55162704e+03
1.01120463e+03
1.69642477e+03
1.66624060e+03
2.19953112e+03
1.99367367e+03
1.78921782e+03
1.39193978e+03
1.36411784e+03
2.01850455e+03
2.16831804e+03
1.25409969e+03
1.06173378e+03
7.49851492e+02
0.00000000e+00
1.17165463e+03
1.48668644e+03
2.19798199e+03
1.53379973e+03
1.71767512e+03
1.90120148e+03
2.14686500e+03
1.23407896e+03
1.46614103e+03
1.47617613e+03
1.93898423e+03
1.38589583e+03
2.18574138e+03
1.28494042e+03
1.61835269e+03
2.27848128e+03
2.05702867e+03
1.40126160e+03
2.22316572e+03
9.52555501e+02
0.00000000e+00
1.18580728e+03
8.85889421e+02
1.08166311e+03
1.21587719e+03
1.62403135e+03
1.40960557e+03
1.40436906e+03
1.36669593e+03
1.27564735e+03
1.35893358e+03
1.17746121e+03
1.24021170e+03
1.26903844e+03
1.30602040e+03
1.33289775e+03
1.41111705e+03
1.79863562e+03
1.36267342e+03
1.25324978e+03
9.44762636e+02
0.00000000e+00
0.00000000e+00
1.08627800e+03
1.68999257e+03
1.43790368e+03
1.42102687e+03
1.75222778e+03
1.33525221e+03
1.48906085e+03
1.91730532e+03
1.81587251e+03
1.70707982e+03
1.59886598e+03
1.99145645e+03
1.32475573e+03
1.39033206e+03
1.49189257e+03
1.71567003e+03
1.51179070e+03
1.95545290e+03
1.23946061e+03
0.00000000e+00
1.01608032e+03
1.07425187e+03
9.21914408e+02
1.18738264e+03
1.33783572e+03
1.27221183e+03
1.18405367e+03
1.22939546e+03
1.30130048e+03
1.10871569e+03
1.22773897e+03
1.04879532e+03
1.19375579e+03
1.00241768e+03
1.28330181e+03
1.20560473e+03
1.34036428e+03
1.24105398e+03
1.40302072e+03
1.16180335e+03
0.00000000e+00
7.84471575e+02
0.00000000e+00
6.52605313e+02
5.92117501e+02
6.79073029e+02
0.00000000e+00
0.00000000e+00
9.82175552e+02
1.01606759e+03
1.21487296e+03
8.62226919e+02
0.00000000e+00
0.00000000e+00
0.00000000e+00
9.34020420e+02
0.00000000e+00
0.00000000e+00
9.10007146e+02
8.37958597e+02
0.00000000e+00
0.00000000e+00
1.13231637e+03
8.66258220e+02
0.00000000e+00
1.43240852e+03
1.08889825e+03
9.89088605e+02