# vtk DataFile Version 3.0
MPS 3D Simulation Step 9700
ASCII
DATASET UNSTRUCTURED_GRID
POINTS 20213 double
-1.20222538e-03 3.71467111e-04 -7.42619290e-04
-1.06187412e-03 1.61231465e-04 -8.25320122e-04
-9.75337522e-04 3.07327066e-04 -9.92189149e-04
-9.20669651e-04 3.33351301e-04 -1.04645669e-03
-8.89805134e-04 1.65424562e-04 -9.92215926e-04
-8.66731157e-04 3.76901259e-04 -1.10062690e-03
-6.54821372e-04 2.32251446e-04 -1.18960984e-03
-5.37223507e-04 2.39390333e-04 -1.25838012e-03
-4.70766586e-04 4.70183713e-04 -1.20241376e-03
-3.71391788e-04 8.75058712e-04 -1.05762490e-03
-2.01730635e-04 9.09385720e-04 -1.01393848e-03
-3.96304836e-04 9.75341991e-04 -1.13955541e-03
-9.19512697e-05 7.54333941e-04 -1.01298109e-03
-1.12870746e-04 2.37450834e-04 -1.35706691e-03
9.70136053e-06 2.37762687e-04 -1.36859565e-03
5.06719382e-04 1.38060719e-04 -1.20924842e-03
1.50757680e-04 7.60779680e-04 -5.98982121e-04
4.70624134e-04 2.80761526e-04 -1.30492571e-03
5.18574227e-04 8.74846567e-04 -1.04727877e-03
7.31047108e-04 9.73948590e-04 -8.30564912e-04
1.13521446e-03 7.46597453e-04 -6.57048927e-04
-1.17638686e-03 2.97438372e-04 -7.57697662e-04
-1.12787499e-03 2.71148076e-04 -8.15818498e-04
-1.04157303e-03 3.48042842e-04 -9.44620306e-04
-9.37199247e-04 4.16469664e-04 -1.05128200e-03
-8.98747247e-04 5.42745285e-04 -1.09294404e-03
-1.01429044e-03 4.72277085e-04 -9.93519406e-04
-8.10365073e-04 4.20166796e-04 -1.15164006e-03
-6.17955139e-04 3.64421294e-04 -1.25831025e-03
-3.91257417e-04 2.56705579e-04 -1.32299845e-03
-4.29249342e-04 1.20424215e-04 -1.24040007e-03
-1.74078911e-04 2.95152884e-04 -1.37084472e-03
1.41905532e-04 1.99977224e-04 -1.34903334e-03
1.59894803e-04 4.06526559e-04 -1.40656791e-03
2.26686826e-04 3.43111537e-04 -1.38884625e-03
2.79491712e-04 2.76171039e-04 -1.36149484e-03
4.48899305e-04 1.74967076e-04 -1.25919909e-03
4.31813807e-04 3.47000618e-04 -1.34202080e-03
4.04204002e-04 8.46421492e-04 -1.21619787e-03
3.75829715e-04 2.85157404e-04 -1.34407980e-03
5.13529307e-04 2.25322098e-04 -1.26365210e-03
8.21862243e-04 1.37790014e-04 -1.01708025e-03
-1.14562210e-03 3.51128257e-04 -8.21853112e-04
-1.10725016e-03 3.94182095e-04 -8.83162974e-04
-1.09613308e-03 5.92977799e-04 -9.18213418e-04
-8.53823467e-04 2.91607796e-04 -1.08356547e-03
-9.93287010e-04 3.92090343e-04 -9.99074195e-04
-8.83563936e-04 4.60245042e-04 -1.09994016e-03
-6.07692455e-04 2.81036414e-04 -1.23747199e-03
-7.35233454e-04 2.81318484e-04 -1.16128416e-03
-4.70574274e-04 3.63954620e-04 -1.32219775e-03
-3.15419197e-04 2.14891878e-04 -1.32571061e-03
-1.80631714e-04 3.93867809e-04 -1.39169428e-03
-5.34151831e-05 2.88663179e-04 -1.38016227e-03
1.03404211e-04 4.71213614e-04 -1.41526734e-03
2.88818938e-04 3.95878547e-04 -1.39159753e-03
2.36502000e-04 2.04231332e-04 -1.33934247e-03
4.05607744e-04 4.89257658e-04 -1.36723858e-03
4.64724268e-04 4.25951321e-04 -1.34175368e-03
3.81286840e-04 4.06325707e-04 -1.37032974e-03
6.47293763e-04 3.20257060e-04 -1.23640761e-03
7.32269100e-04 2.13684450e-04 -1.13688273e-03
7.44380150e-04 1.33197716e-04 -1.06332399e-03
-1.21760754e-03 4.54629589e-04 -7.35613640e-04
-1.13020180e-03 4.71650582e-04 -8.66964662e-04
-1.08513417e-03 5.10195444e-04 -9.26209025e-04
-9.54923388e-04 5.01743928e-04 -1.04553281e-03
-8.26887760e-04 5.00506379e-04 -1.15008078e-03
-7.43725932e-04 3.72032311e-04 -1.18928867e-03
-6.80880808e-04 3.17753475e-04 -1.21121394e-03
-3.92120406e-04 3.34614528e-04 -1.34464252e-03
-3.16412185e-04 3.83065101e-04 -1.36912381e-03
-3.88754172e-04 1.79140948e-04 -1.29307138e-03
-9.87632951e-05 4.31703995e-04 -1.40492421e-03
-1.88735001e-04 2.00855397e-04 -1.33279311e-03
-3.03721238e-05 3.78966621e-04 -1.40349725e-03
2.83580918e-05 3.18024547e-04 -1.39406145e-03
2.31589948e-04 4.48975647e-04 -1.40465887e-03
3.33568508e-04 3.38109489e-04 -1.37269593e-03
4.24388085e-04 5.73626023e-04 -1.35989642e-03
6.77787433e-04 3.98057945e-04 -1.23292154e-03
6.92826604e-04 2.67648148e-04 -1.19118045e-03
7.77873158e-04 2.83793323e-04 -1.14016643e-03
8.47064197e-04 3.36337773e-04 -1.11617929e-03
-1.22971724e-03 5.36192744e-04 -7.23349948e-04
-1.04450732e-03 6.26070741e-04 -9.72391261e-04
-1.06096218e-03 4.31501445e-04 -9.40390456e-04
-8.39893915e-04 5.82360709e-04 -1.13945098e-03
-6.87280426e-04 4.93664594e-04 -1.24175898e-03
-7.51388439e-04 4.59786029e-04 -1.19943726e-03
-3.93446976e-04 4.14895301e-04 -1.35191462e-03
-3.26281541e-04 4.69831933e-04 -1.37314316e-03
-2.44341262e-04 3.37909763e-04 -1.37363001e-03
-1.69380218e-04 4.81967643e-04 -1.40131542e-03
-1.07074704e-04 5.37681441e-04 -1.41152951e-03
-2.44641385e-04 2.51618426e-04 -1.34918273e-03
-4.11085051e-05 4.90002720e-04 -1.41432577e-03
1.98341048e-04 5.94652503e-04 -1.40893030e-03
2.43345409e-05 4.40898493e-04 -1.41466900e-03
3.23498965e-04 4.71261539e-04 -1.38917568e-03
3.44833798e-04 5.57044464e-04 -1.38522083e-03
5.57082973e-04 3.01951829e-04 -1.27286854e-03
7.29619746e-04 3.36281146e-04 -1.19151727e-03
7.96723618e-04 3.74035561e-04 -1.15946037e-03
8.25230573e-04 4.57503942e-04 -1.14899585e-03
-1.23231695e-03 6.32577602e-04 -7.18466417e-04
-1.14113361e-03 5.51849711e-04 -8.61138312e-04
-9.87331736e-04 6.59094797e-04 -1.01883653e-03
-1.03453628e-03 5.47055350e-04 -9.81596079e-04
-7.71374902e-04 5.39751560e-04 -1.19288894e-03
-6.16591565e-04 4.47106790e-04 -1.27177560e-03
-5.41895982e-04 4.07513300e-04 -1.29691280e-03
-4.68876103e-04 4.50328447e-04 -1.32713299e-03
-2.49708566e-04 4.35040975e-04 -1.38681589e-03
-3.23996025e-04 5.55103074e-04 -1.37480800e-03
-2.50136609e-04 5.18890676e-04 -1.39146505e-03
-1.11053330e-04 3.44093060e-04 -1.39054774e-03
1.78188758e-04 5.10752651e-04 -1.41234956e-03
2.65374180e-04 5.34823864e-04 -1.40119278e-03
9.14981801e-05 2.60842002e-04 -1.37641867e-03
1.70244155e-04 7.47375165e-04 -1.39943320e-03
2.81307283e-04 6.20152656e-04 -1.39391303e-03
4.83964444e-04 5.08091627e-04 -1.33781932e-03
6.00067152e-04 3.76413459e-04 -1.27145353e-03
7.49566041e-04 4.30255947e-04 -1.19486775e-03
9.04940856e-04 4.88545556e-04 -1.09233911e-03
-1.19426217e-03 5.90122600e-04 -7.83284754e-04
-1.18383960e-03 5.10762422e-04 -7.96910789e-04
-1.05079014e-03 7.05052626e-04 -9.54001894e-04
-9.19039822e-04 6.19943878e-04 -1.07864857e-03
-7.80495952e-04 6.21876403e-04 -1.18221858e-03
-6.23266285e-04 5.34781558e-04 -1.27497218e-03
-5.47533170e-04 4.93507831e-04 -1.30145475e-03
-3.98047713e-04 5.05343219e-04 -1.35294816e-03
-4.77090957e-04 5.39661812e-04 -1.32715854e-03
-4.08967436e-04 5.91759928e-04 -1.35147403e-03
-1.91191916e-04 5.72656997e-04 -1.40186992e-03
-3.61120971e-05 5.83310921e-04 -1.41817333e-03
3.52643350e-05 5.31183449e-04 -1.41761706e-03
1.13280928e-04 5.61734078e-04 -1.41585455e-03
1.27662590e-04 6.48218110e-04 -1.41269743e-03
5.00369081e-04 5.91117671e-04 -1.33018528e-03
4.42535241e-04 6.60259120e-04 -1.34982230e-03
5.47480210e-04 4.31505248e-04 -1.30397682e-03
5.62569440e-04 5.08477821e-04 -1.30201475e-03
8.49394611e-04 5.37118494e-04 -1.13592454e-03
8.00059657e-04 6.00308835e-04 -1.17064141e-03
-1.23794413e-03 7.14057100e-04 -6.95618758e-04
-1.15265577e-03 6.30955624e-04 -8.43663489e-04
-1.10444936e-03 6.70541174e-04 -9.01315095e-04
-9.77274386e-04 5.79787530e-04 -1.03191622e-03
-7.07942764e-04 5.73556302e-04 -1.23162411e-03
-5.61580888e-04 5.84568151e-04 -1.30127810e-03
-5.81741279e-04 6.62231025e-04 -1.29576298e-03
-4.93233783e-04 6.22467621e-04 -1.32883255e-03
-4.27206043e-04 6.74033205e-04 -1.34957769e-03
-3.42808123e-04 6.41958009e-04 -1.37155246e-03
-2.61999067e-04 6.17554660e-04 -1.39043864e-03
-1.26395414e-04 6.23118308e-04 -1.41244828e-03
-5.16439294e-05 6.62136027e-04 -1.41890037e-03
4.60337851e-05 6.18142349e-04 -1.41819360e-03
9.55269296e-05 7.22766506e-04 -1.41114675e-03
3.64298979e-04 6.40275935e-04 -1.37644244e-03
2.99814674e-04 7.03953176e-04 -1.38441891e-03
5.23707911e-04 6.69759216e-04 -1.31840276e-03
6.25246304e-04 4.66421566e-04 -1.26517241e-03
7.73876563e-04 5.16896564e-04 -1.18446304e-03
7.67533942e-04 7.31628510e-04 -1.18211155e-03
-1.19691806e-03 6.81922775e-04 -7.72478009e-04
-1.15195093e-03 7.15137427e-04 -8.29250806e-04
-1.10153988e-03 7.52818652e-04 -8.83322846e-04
-7.92521993e-04 7.02441069e-04 -1.16282713e-03
-7.18949203e-04 6.58475262e-04 -1.22165307e-03
-6.45363322e-04 6.15775190e-04 -1.26565721e-03
-5.90071813e-04 7.43242842e-04 -1.28321622e-03
-5.14164755e-04 7.01303921e-04 -1.32045014e-03
-4.42538971e-04 7.49532212e-04 -1.34121512e-03
-3.55276979e-04 7.19669435e-04 -1.36689701e-03
-2.72273857e-04 7.07002128e-04 -1.38654889e-03
-1.95463172e-04 6.70906112e-04 -1.40136570e-03
-1.20765385e-04 7.13172061e-04 -1.40946642e-03
-4.42815158e-05 7.53406752e-04 -1.40952770e-03
1.98940185e-05 6.96131714e-04 -1.41830518e-03
2.49863513e-04 7.69506623e-04 -1.38571267e-03
2.68647882e-04 8.56096478e-04 -1.36119388e-03
3.79082302e-04 7.25798928e-04 -1.36329893e-03
5.79971571e-04 5.85058754e-04 -1.29769428e-03
6.97136473e-04 4.88631805e-04 -1.22846881e-03
7.46351751e-04 6.55530866e-04 -1.20288419e-03
-1.19497694e-03 7.65832281e-04 -7.50126613e-04
-1.09294355e-03 8.34542579e-04 -8.62140650e-04
-9.90868967e-04 7.39671812e-04 -1.00252653e-03
-8.55774298e-04 6.62010822e-04 -1.12161705e-03
-7.94549874e-04 7.81075576e-04 -1.14344806e-03
-6.54790093e-04 6.99451844e-04 -1.25410006e-03
-6.61759026e-04 7.82496959e-04 -1.23476702e-03
-5.21409397e-04 7.85220660e-04 -1.30603792e-03
-4.47211380e-04 8.28590428e-04 -1.32335469e-03
-3.66773546e-04 7.96501347e-04 -1.35629953e-03
-2.87007273e-04 7.90673934e-04 -1.37261169e-03
-2.01784532e-04 7.59455563e-04 -1.39425281e-03
-1.25725248e-04 7.96784101e-04 -1.39608148e-03
-5.41803046e-05 8.37240837e-04 -1.39433879e-03
3.15466717e-05 7.87453297e-04 -1.40466160e-03
1.86113110e-04 8.33423882e-04 -1.38138798e-03
3.55161951e-04 8.69509255e-04 -1.33826655e-03
3.27337378e-04 7.91263467e-04 -1.36568616e-03
5.98555583e-04 6.58753472e-04 -1.28533499e-03
7.20737330e-04 5.74756180e-04 -1.21912621e-03
7.20523937e-04 7.98697048e-04 -1.19655463e-03
-1.14499904e-03 7.95449693e-04 -8.09873389e-04
-1.08389086e-03 9.11635626e-04 -8.35120164e-04
[...]
POINT_DATA 20213
SCALARS pressure double 1
LOOKUP_TABLE default
4.46671921e+02
0.00000000e+00
0.00000000e+00
7.78304766e+02
0.00000000e+00
0.00000000e+00
6.67517809e+02
0.00000000e+00
8.75569409e+02
1.10835088e+03
1.09425149e+03
1.05024343e+03
1.15916705e+03
0.00000000e+00
0.00000000e+00
7.38933843e+02
2.15508434e+03
9.49651989e+02
9.93969846e+02
1.05196191e+03
8.46001941e+02
0.00000000e+00
0.00000000e+00
0.00000000e+00
7.93605715e+02
9.74420732e+02
0.00000000e+00
9.68751407e+02
0.00000000e+00
0.00000000e+00
0.00000000e+00
0.00000000e+00
0.00000000e+00
0.00000000e+00
0.00000000e+00
0.00000000e+00
0.00000000e+00
1.04476338e+03
8.06297280e+02
9.55504102e+02
0.00000000e+00
0.00000000e+00
4.00000619e+02
0.00000000e+00
0.00000000e+00
7.65913824e+02
5.53897236e+02
9.13316802e+02
0.00000000e+00
9.57219951e+02
6.99873037e+02
0.00000000e+00
0.00000000e+00
0.00000000e+00
0.00000000e+00
9.90025006e+02
6.14872578e+02
1.12200763e+03
1.05959938e+03
1.14533289e+03
1.06397638e+03
8.10459444e+02
0.00000000e+00
4.91583064e+02
0.00000000e+00
0.00000000e+00
0.00000000e+00
1.06585082e+03
0.00000000e+00
8.17817321e+02
0.00000000e+00
6.86001093e+02
0.00000000e+00
0.00000000e+00
0.00000000e+00
0.00000000e+00
0.00000000e+00
8.30126457e+02
1.10356564e+03
9.38790234e+02
0.00000000e+00
1.05146226e+03
9.70857092e+02
1.07127332e+03
0.00000000e+00
0.00000000e+00
0.00000000e+00
1.23817966e+03
9.18273171e+02
0.00000000e+00
0.00000000e+00
5.35547659e+02
6.63076549e+02
3.87355809e+02
0.00000000e+00
6.01826988e+02
0.00000000e+00
0.00000000e+00
0.00000000e+00
1.28262390e+03
1.17241884e+03
1.09046160e+03
9.91614947e+02
8.41096286e+02
0.00000000e+00
0.00000000e+00
0.00000000e+00
9.44188631e+02
0.00000000e+00
1.05739729e+03
8.98389333e+02
7.84473183e+02
0.00000000e+00
0.00000000e+00
0.00000000e+00
4.63044292e+02
0.00000000e+00
0.00000000e+00
1.00824347e+03
0.00000000e+00
0.00000000e+00
9.47514039e+02
0.00000000e+00
0.00000000e+00
0.00000000e+00
7.94649233e+02
0.00000000e+00
0.00000000e+00
0.00000000e+00
0.00000000e+00
1.21097846e+03
7.81730431e+02
0.00000000e+00
0.00000000e+00
0.00000000e+00
0.00000000e+00
4.37387877e+02
0.00000000e+00
0.00000000e+00
6.07133270e+02
0.00000000e+00
8.11835406e+02
0.00000000e+00
0.00000000e+00
8.15865662e+02
6.23451384e+02
0.00000000e+00
0.00000000e+00
0.00000000e+00
0.00000000e+00
8.11879210e+02
0.00000000e+00
0.00000000e+00
0.00000000e+00
0.00000000e+00
0.00000000e+00
0.00000000e+00
0.00000000e+00
0.00000000e+00
0.00000000e+00
0.00000000e+00
0.00000000e+00
9.16408595e+02
9.76807136e+02
0.00000000e+00
7.96765692e+02
6.08572609e+02
0.00000000e+00
0.00000000e+00
0.00000000e+00
6.00796624e+02
1.18280657e+03
0.00000000e+00
8.03637480e+02
0.00000000e+00
0.00000000e+00
0.00000000e+00
5.87739150e+02
0.00000000e+00
0.00000000e+00
0.00000000e+00
0.00000000e+00
0.00000000e+00
0.00000000e+00
8.26616988e+02
8.99292422e+02
0.00000000e+00
0.00000000e+00
5.18714753e+02
0.00000000e+00
0.00000000e+00
1.00691618e+03
1.23093350e+03
1.25216742e+03
8.73939939e+02
0.00000000e+00
0.00000000e+00
0.00000000e+00
0.00000000e+00
0.00000000e+00
0.00000000e+00
0.00000000e+00
0.00000000e+00
0.00000000e+00
0.00000000e+00
0.00000000e+00
8.35658388e+02
0.00000000e+00
0.00000000e+00
0.00000000e+00
0.00000000e+00
0.00000000e+00
1.25405554e+03
1.10615707e+03
1.05337769e+03
1.13572450e+03
0.00000000e+00
9.04199790e+02
9.13448942e+02
0.00000000e+00
7.56813851e+02
0.00000000e+00
0.00000000e+00
0.00000000e+00
0.00000000e+00
0.00000000e+00
1.02557724e+03
0.00000000e+00
0.00000000e+00
0.00000000e+00
5.59099956e+02
0.00000000e+00
0.00000000e+00
0.00000000e+00
9.36242995e+02
1.10068422e+03
8.93246867e+02
1.03833711e+03
9.43894781e+02
1.00555659e+03
9.52562234e+02
0.00000000e+00
5.80156912e+02
0.00000000e+00
8.12556726e+02
9.53771880e+02
9.54499466e+02
0.00000000e+00
0.00000000e+00
0.00000000e+00
0.00000000e+00
0.00000000e+00
0.00000000e+00
0.00000000e+00
0.00000000e+00
0.00000000e+00
0.00000000e+00
0.00000000e+00
9.01482690e+02
9.67218312e+02
9.96616280e+02
0.00000000e+00
6.05903350e+02
0.00000000e+00
0.00000000e+00
9.00950585e+02
1.12258335e+03
1.12453611e+03
0.00000000e+00
9.77230483e+02
0.00000000e+00
0.00000000e+00
0.00000000e+00
0.00000000e+00
0.00000000e+00
0.00000000e+00
0.00000000e+00
0.00000000e+00
0.00000000e+00
0.00000000e+00
7.75674041e+02
8.14716109e+02
0.00000000e+00
0.00000000e+00
0.00000000e+00
0.00000000e+00
0.00000000e+00
1.16504252e+03
1.11767793e+03
1.22443067e+03
0.00000000e+00
8.02658848e+02
0.00000000e+00
0.00000000e+00
0.00000000e+00
0.00000000e+00
0.00000000e+00
0.00000000e+00
0.00000000e+00
0.00000000e+00
0.00000000e+00
8.99030692e+02
1.00464406e+03
9.77722606e+02
0.00000000e+00
0.00000000e+00
0.00000000e+00
0.00000000e+00
1.21260012e+03
1.21708162e+03
1.08041455e+03
1.04370426e+03
9.17487040e+02
6.98033806e+02
0.00000000e+00
0.00000000e+00
0.00000000e+00
0.00000000e+00
0.00000000e+00
0.00000000e+00
0.00000000e+00
0.00000000e+00
0.00000000e+00
8.97940283e+02
8.44268894e+02
8.85431322e+02
0.00000000e+00
1.02976200e+03
1.21098345e+03
0.00000000e+00
1.06170197e+03
1.22481366e+03
9.24145869e+02
8.05796265e+02
7.70745236e+02
0.00000000e+00
0.00000000e+00
0.00000000e+00
0.00000000e+00
0.00000000e+00
0.00000000e+00
6.12348094e+02
6.87857485e+02
7.34646797e+02
0.00000000e+00
0.00000000e+00
7.66765897e+02
0.00000000e+00
1.03217777e+03
1.24219078e+03
1.19522723e+03
1.25463530e+03
1.05187316e+03
0.00000000e+00
0.00000000e+00
0.00000000e+00
7.88043627e+02
0.00000000e+00
0.00000000e+00
0.00000000e+00
0.00000000e+00
0.00000000e+00
8.23325968e+02
0.00000000e+00
0.00000000e+00
6.96512324e+02
0.00000000e+00
0.00000000e+00
7.88804006e+02
9.53924170e+02
1.14959766e+03
0.00000000e+00
0.00000000e+00
0.00000000e+00
0.00000000e+00
0.00000000e+00
8.41984298e+02
7.37118002e+02
0.00000000e+00
0.00000000e+00
0.00000000e+00
5.40493161e+02
4.50423356e+02
7.81292377e+02
7.04861979e+02
8.06933098e+02
0.00000000e+00
0.00000000e+00
0.00000000e+00
0.00000000e+00
1.03654737e+03
1.20587457e+03
0.00000000e+00
1.13867516e+03
0.00000000e+00
0.00000000e+00
0.00000000e+00
0.00000000e+00
0.00000000e+00
0.00000000e+00
0.00000000e+00
0.00000000e+00
0.00000000e+00
6.25832022e+02
0.00000000e+00
9.33853061e+02
0.00000000e+00
0.00000000e+00
0.00000000e+00
0.00000000e+00
0.00000000e+00
0.00000000e+00
9.70614978e+02
1.11618486e+03
1.14793738e+03
1.11022250e+03
1.02461175e+03
9.94399550e+02
9.37471568e+02
0.00000000e+00
6.71811230e+02
0.00000000e+00
0.00000000e+00
0.00000000e+00
0.00000000e+00
0.00000000e+00
0.00000000e+00
0.00000000e+00
0.00000000e+00
8.52050360e+02
1.00278896e+03
0.00000000e+00
0.00000000e+00
0.00000000e+00
1.02605932e+03
1.08681411e+03
1.18142860e+03
0.00000000e+00
1.02789246e+03
9.38804595e+02
9.80868060e+02
0.00000000e+00
0.00000000e+00
6.20141685e+02
0.00000000e+00
0.00000000e+00
5.23161683e+02
1.55076766e+03
8.78230334e+02
0.00000000e+00
1.20244849e+03
1.56802067e+03
1.78894931e+03
1.06621514e+03
1.16054610e+03
1.20724520e+03
1.66298150e+03
1.01218388e+03
1.15874423e+03
1.08080160e+03
0.00000000e+00
8.07093196e+02
0.00000000e+00
1.90773638e+03
4.55170247e+02
2.19994055e+03
6.73521342e+02
1.41853932e+03
9.88142257e+02
1.42805441e+03
1.14241850e+03
1.44628104e+03
1.97026136e+03
2.00699021e+03
8.73232144e+02
1.86041036e+03
1.92509392e+03
1.51909476e+03
1.40142086e+03
1.51144482e+03
1.63118116e+03
1.45137104e+03
9.89998744e+02
0.00000000e+00
1.45694936e+03
1.42948678e+03
1.74825438e+03
9.41735023e+02
8.73564658e+02
2.03646421e+03
0.00000000e+00
3.79778984e+02
6.49319376e+02
6.16604397e+02
5.07269571e+02
0.00000000e+00
0.00000000e+00
9.87756902e+02
1.25173041e+03
1.19610680e+03
8.63489186e+02
1.45008156e+03
1.13458115e+03
0.00000000e+00
0.00000000e+00
4.36798093e+02
1.94398607e+03
1.19810923e+03
1.12396931e+03
1.52146106e+03
7.97463249e+02
1.21078133e+03
1.04135950e+03
5.51610224e+02
1.03255660e+03
1.56889441e+03
1.89477504e+03
1.24342389e+03
1.20788218e+03
1.27134869e+03
1.81808190e+03
1.69584177e+03
1.18238237e+03
1.93144850e+03
8.07298157e+02
0.00000000e+00
8.63585944e+02
2.16128303e+03
1.96064819e+03
1.63970508e+03
1.76462796e+03
2.07464447e+03
7.23983625e+02
7.79308836e+02
1.79272146e+03
1.86436666e+03
1.89030023e+03
9.73611007e+02
7.35224603e+02
0.00000000e+00
2.09574884e+03
9.34648975e+02
1.34077302e+03
1.62745691e+03
8.15362631e+02
5.45208246e+02
0.00000000e+00
1.78019347e+03
5.66826062e+02
9.88408792e+02
1.05072911e+03
9.25584118e+02
2.04335876e+03
1.22397731e+03
7.18831836e+02
8.64098504e+02
1.81102751e+03
9.69394440e+02
1.69392369e+03
1.51668064e+03
8.24663280e+02
0.00000000e+00
1.08789917e+03
1.26606153e+03
1.00377883e+03
1.61472398e+03
0.00000000e+00
0.00000000e+00
1.76573905e+03
1.35363242e+03
1.75595228e+03
1.83173100e+03
6.27643039e+02
1.85704384e+03
1.40991315e+03
7.58159812e+02
1.74619080e+03
8.16058569e+02
1.53719931e+03
1.51648914e+03
1.26792924e+03
1.40707699e+03
1.80158719e+03
1.38490791e+03
1.06622946e+03
1.13811896e+03
8.65960344e+02
0.00000000e+00
3.84130128e+02
1.01531190e+03
7.12846205e+02
1.34728473e+03
1.41817703e+03
1.78705046e+03
1.50928316e+03
1.94319528e+03
1.67138636e+03
1.80338175e+03
1.28922240e+03
1.07564978e+03
1.28398000e+03
1.30424558e+03
1.78912956e+03
1.98526952e+03
1.23334919e+03
1.17876194e+03
7.21556576e+02
9.93810678e+02
4.59204689e+02
0.00000000e+00
1.96308542e+03
9.66396368e+02
1.88928546e+03
1.18059745e+03
1.59339532e+03
1.26248790e+03
1.74662716e+03
1.03021260e+03
6.36597993e+02
1.27843019e+03
1.94983402e+03
1.17521561e+03
1.71539754e+03
1.25876239e+03
1.21620837e+03
1.38597549e+03
1.61215401e+03
5.45273299e+02
1.43640841e+03
0.00000000e+00
5.37907191e+02
2.13961007e+03
1.17679923e+03
1.22395073e+03
1.08596280e+03
8.11688311e+02
8.66371418e+02
1.04695945e+03
1.73987442e+03
1.02481446e+03
9.92279578e+02
1.18534612e+03
1.90817546e+03
1.14394498e+03
1.11609113e+03
1.32134777e+03
1.09896836e+03
1.35759839e+03
0.00000000e+00
1.06994707e+03
5.31676048e+02
0.00000000e+00
1.99440115e+03
1.17583314e+03
1.33462409e+03
1.07579450e+03
1.06353587e+03
1.05101309e+03
1.73408372e+03
1.62974216e+03
1.85272713e+03
1.09945549e+03
1.90979188e+03
1.17634547e+03
1.88427761e+03
1.22509747e+03
1.32183403e+03
1.79514045e+03
1.83548171e+03
0.00000000e+00
1.46750788e+03
0.00000000e+00
0.00000000e+00
1.30356344e+03
1.03238871e+03
8.94021892e+02
7.55130204e+02
9.53162742e+02
1.24956767e+03
9.62597271e+02
1.75923678e+03
1.57605432e+03
1.90723186e+03
1.34403477e+03
1.61281280e+03
9.35655351e+02
1.72060650e+03
1.34603282e+03
1.31667954e+03
1.48718277e+03
0.00000000e+00
1.01575913e+03
0.00000000e+00
3.72261240e+02
1.84171736e+03
5.86512937e+02
2.03690326e+03
2.01829588e+03
8.21376866e+02
1.15241976e+03
1.90307383e+03
1.45090352e+03
1.20514908e+03
1.45462223e+03
1.86401753e+03
6.95066007e+02
1.41015109e+03
1.32168199e+03
1.46009769e+03
1.40757179e+03
1.83420955e+03
0.00000000e+00
1.99670307e+03
6.16943610e+02
0.00000000e+00
9.42831692e+02
8.22583013e+02
1.76542577e+03
7.54834114e+02
8.90102986e+02
1.37206806e+03
1.43063987e+03
1.86083181e+03
1.10290377e+03
1.32720686e+03
1.16276372e+03
1.16117078e+03
8.81033960e+02
1.12245138e+03
1.48574742e+03
1.51360239e+03
1.69321115e+03
0.00000000e+00
1.15683170e+03
0.00000000e+00
0.00000000e+00
1.02376510e+03
1.08574792e+03
1.49776344e+03
1.99218951e+03
1.62362995e+03
1.83292983e+03
1.93973391e+03
1.83574845e+03
1.09979797e+03
1.92610184e+03
1.02700073e+03
9.59391287e+02
1.04208722e+03
1.32636686e+03
1.46239348e+03
1.89666824e+03
1.49946014e+03
1.50241145e+03
1.27533493e+03
7.38887901e+02
0.00000000e+00
1.23560175e+03
1.79901861e+03
8.32639284e+02
9.63083237e+02
0.00000000e+00
1.13663015e+03
1.11583326e+03
1.15022116e+03
1.23350558e+03
1.63896110e+03
1.86347373e+03
1.23506449e+03
1.04318120e+03
1.26789326e+03
1.23710355e+03
1.86813959e+03
1.43964943e+03
1.48960404e+03
1.52855353e+03
7.49060580e+02
0.00000000e+00
1.77215292e+03
1.88104722e+03
1.35980000e+03
1.83323631e+03
8.56024595e+02
1.11625400e+03
9.79984439e+02
1.82540371e+03
1.07507086e+03
1.08480051e+03
1.00464829e+03
1.36420101e+03
1.22667460e+03
1.33135714e+03
1.19864869e+03
1.65432576e+03
1.45777704e+03
1.91522672e+03
1.16454934e+03
0.00000000e+00
0.00000000e+00
1.43931936e+03
8.22222893e+02
1.91384557e+03
7.74844430e+02
1.88201246e+03
1.43078329e+03
1.22755188e+03
1.71204476e+03
1.01920810e+03
1.20359332e+03
9.75832984e+02
1.84338622e+03
1.87217628e+03
1.31938681e+03
1.43305574e+03
1.39953087e+03
1.47172426e+03
1.42301200e+03
1.19931952e+03
0.00000000e+00
0.00000000e+00
1.40389463e+03
1.02569138e+03
1.46393174e+03
1.88341948e+03
1.47678941e+03
7.21153213e+02
0.00000000e+00
0.00000000e+00
0.00000000e+00
0.00000000e+00
7.65077613e+02
0.00000000e+00
0.00000000e+00
1.15593423e+03
1.26604522e+03
1.28004059e+03
9.89948119e+02
1.14531843e+03
1.70188118e+03
6.34713376e+02
7.72838712e+02
9.31858027e+02
1.15586586e+03
1.56507382e+03
7.54421945e+02
1.53965910e+03
9.95870583e+02
1.00016353e+03
1.21979020e+03
9.92553901e+02
1.82145171e+03
1.16482180e+03
1.05456871e+03
9.59402947e+02
9.90266416e+02
9.94803155e+02
1.03181449e+03
1.21099647e+03
1.72385913e+03
1.89645523e+03
0.00000000e+00
0.00000000e+00
0.00000000e+00
0.00000000e+00
0.00000000e+00
0.00000000e+00
0.00000000e+00
7.76182405e+02
9.58645287e+02
1.02548903e+03
8.87168949e+02
7.69109711e+02
8.86502716e+02
0.00000000e+00
0.00000000e+00
0.00000000e+00
1.21199600e+03
1.39403891e+03
1.22470541e+03
0.00000000e+00
1.07091580e+03
7.48434932e+02
0.00000000e+00
0.00000000e+00
0.00000000e+00
0.00000000e+00
5.46374026e+02
0.00000000e+00
7.60597312e+02
0.00000000e+00
7.83903162e+02
6.30743641e+02
7.53675706e+02
1.19516937e+03
1.29112670e+03
0.00000000e+00
1.26811559e+03
1.06654014e+03
1.02635759e+03
8.63476916e+02
0.00000000e+00
0.00000000e+00
0.00000000e+00
0.00000000e+00
9.17056711e+02
1.48268891e+03
1.01393296e+03
1.21631536e+03
4.12717292e+02
9.95013184e+02
5.52743076e+02
2.01401424e+03
0.00000000e+00
1.20579066e+03
1.17914996e+03
8.73503676e+02
0.00000000e+00
1.28411907e+03
1.81961567e+03
2.01983096e+03
1.92759398e+03
1.40715009e+03
7.96882194e+02
0.00000000e+00
0.00000000e+00
1.20388172e+03
2.08892991e+03
2.19977517e+03
1.67543879e+03
1.81136198e+03
1.93119410e+03
1.05610837e+03
9.32199685e+02
1.82308108e+03
6.24678213e+02
1.14885587e+03
1.19928913e+03
1.36525428e+03
1.57274885e+03
2.02648236e+03
1.07523067e+03
9.39813762e+02
7.66982472e+02
1.76580173e+03
8.78481159e+02
0.00000000e+00
5.96243748e+02
1.21127586e+03
5.78055755e+02
1.12832092e+03
1.25823856e+03
1.60295257e+03
9.48604268e+02
1.04494257e+03
9.14998504e+02
9.74441026e+02
1.49769799e+03
1.48577127e+03
9.75062369e+02
1.87662304e+03
1.38007192e+03
1.39208436e+03
1.88234284e+03
1.41742413e+03
2.12569266e+03
0.00000000e+00
0.00000000e+00
1.68728961e+03
4.93725467e+02
8.98902982e+02
1.79261459e+03
1.47550070e+03
1.18977545e+03
1.50495548e+03
8.51498892e+02
1.23081585e+03
1.81294319e+03
9.43320119e+02
8.41744501e+02
1.99603652e+03
1.46795625e+03
1.14030267e+03
1.84569284e+03
1.06738186e+03
2.27821097e+03
2.22304947e+03
0.00000000e+00
0.00000000e+00
1.27758079e+03
8.03425763e+02
1.85695216e+03
2.12127876e+03
1.41316167e+03
1.30379205e+03
1.63428607e+03
7.46470856e+02
1.92516900e+03
6.34890608e+02
1.04561765e+03
4.12938745e+02
0.00000000e+00
2.00798882e+03
1.80994551e+03
1.99202760e+03
1.10030758e+03
1.72588718e+03
1.26064467e+03
0.00000000e+00
0.00000000e+00
1.75050737e+03
8.76626687e+02
1.62700135e+03
1.33501876e+03
9.34954232e+02
1.35970127e+03
1.70755677e+03
1.05907133e+03
2.02481797e+03
1.09487672e+03
7.37866373e+02
8.44472329e+02
1.30792354e+03
1.86081383e+03
7.31875602e+02
2.09898955e+03
2.13633468e+03
2.14163659e+03
1.16906272e+03
0.00000000e+00
0.00000000e+00
0.00000000e+00
1.82143520e+03
2.02388265e+03
2.07126396e+03
1.95021538e+03
9.27464613e+02
5.27304049e+02
1.16279888e+03
1.80165356e+03
2.01884471e+03
1.37891121e+03
1.79368983e+03
1.84107787e+03
2.00488965e+03
1.38908839e+03
1.91492123e+03
1.91898932e+03
2.03846314e+03
0.00000000e+00
6.03577750e+02
4.71044956e+02
5.18710470e+02
1.32474934e+03
1.42184334e+03
1.93758645e+03
2.14351900e+03
1.93437001e+03
1.49194619e+03
1.53299106e+03
1.24003438e+03
2.04441627e+03
1.39054858e+03
1.69803726e+03
7.34089248e+02
1.84266377e+03
6.73127404e+02
1.50175061e+03
1.88396292e+03
1.74751130e+03
0.00000000e+00
0.00000000e+00
0.00000000e+00
0.00000000e+00
2.06280653e+03
6.70585563e+02
2.09253485e+03
1.63934068e+03
2.06129039e+03
4.30281874e+02
6.86643940e+02
1.75494578e+03
7.13443088e+02
9.13237703e+02
1.46279970e+03
1.21376175e+03
1.69194478e+03
1.11571060e+03
1.45914667e+03
1.50010341e+03
1.10715941e+03
0.00000000e+00
0.00000000e+00
4.52996766e+02
4.18861960e+02
1.48368563e+03
8.69623935e+02
1.66361824e+03
6.88921303e+02
1.90879972e+03
1.32769288e+03
1.47190672e+03
1.85195583e+03
1.32394589e+03
1.72286148e+03
1.04272207e+03
1.57864652e+03
1.92543295e+03
1.43910599e+03
2.17789344e+03
1.37712872e+03
1.90388376e+03
0.00000000e+00
0.00000000e+00
0.00000000e+00
0.00000000e+00
1.68251710e+03
1.06221649e+03
2.06559989e+03
3.79788106e+02
1.52699004e+03
1.03284684e+03
1.66587636e+03
7.12513172e+02
9.95013180e+02
1.33710814e+03
1.12451977e+03
8.20643970e+02
1.42983463e+03
1.43266717e+03
1.77041961e+03
1.39829370e+03
1.40944334e+03
0.00000000e+00
0.00000000e+00
0.00000000e+00
0.00000000e+00
1.03390339e+03
1.17103321e+03
6.95777756e+02
6.12561719e+02
1.02477531e+03
1.76039535e+03
7.77278692e+02
1.68807682e+03
1.31565260e+03
1.84143286e+03
8.86000265e+02
2.01127439e+03
8.58195538e+02
1.57471936e+03
1.34423251e+03
1.56471410e+03
1.04115732e+03
0.00000000e+00
6.76880778e+02
0.00000000e+00
0.00000000e+00
1.89041731e+03
1.81585612e+03
1.26665422e+03
1.76344556e+03
1.68124844e+03
1.31830156e+03
1.76737475e+03
1.78872226e+03
6.83327151e+02
1.52714617e+03
1.70250513e+03
1.46542062e+03
1.43312668e+03
1.40206029e+03
1.47533790e+03
1.80131841e+03
1.44353421e+03
6.14224314e+02
7.33318651e+02
0.00000000e+00
1.96331661e+03
1.73614056e+03
1.90691812e+03
1.10799008e+03
1.67107921e+03
1.48106063e+03
1.07120667e+03
1.76636235e+03
1.85546164e+03
1.69111507e+03
1.70715356e+03
8.22603631e+02
1.13709256e+03
1.66232606e+03
1.56095855e+03
9.06472932e+02
1.90222789e+03
1.93187355e+03
1.41236680e+03
0.00000000e+00
0.00000000e+00
1.98761053e+03
1.32497461e+03
1.91750316e+03
9.55334892e+02
6.94257312e+02
1.89098406e+03
1.39243955e+03
1.28679225e+03
1.83937411e+03
7.55501309e+02
1.55495004e+03
1.33701467e+03
1.42239856e+03
1.68808688e+03
1.85532067e+03
1.79668772e+03
1.87003337e+03
1.60433494e+03
1.42278720e+03
6.43885121e+02
0.00000000e+00
1.14975099e+03
5.45238463e+02
1.06884192e+03
3.76015461e+02
6.83881265e+02
8.95389023e+02
1.47932200e+03
1.83704663e+03
1.18402680e+03
7.14648036e+02
1.50618498e+03
1.08358952e+03
1.18758417e+03
1.17624803e+03
7.24860563e+02
8.95047133e+02
1.84101806e+03
1.32851272e+03
1.64955107e+03
7.25413926e+02
0.00000000e+00
1.33258267e+03
1.97203095e+03
1.14272076e+03
5.40347614e+02
1.36037411e+03
1.27544806e+03
1.79625184e+03
1.04883752e+03
9.59345318e+02
1.22649578e+03
9.86241947e+02
1.11754145e+03
1.18599764e+03
1.75886935e+03
1.04639696e+03
1.83130583e+03
1.93763745e+03
1.88931702e+03
1.42994956e+03
0.00000000e+00
1.22871290e+03
1.61031366e+03
1.32665334e+03
1.77757301e+03
1.92739357e+03
6.30504183e+02
1.52966017e+03
1.66213139e+03
8.68288595e+02
1.22119730e+03
6.50801668e+02
1.32397678e+03
0.00000000e+00
1.59688210e+03
1.46797455e+03
1.67252058e+03
1.11470949e+03
1.12192314e+03
9.71782835e+02
1.87990734e+03
0.00000000e+00
1.10142180e+03
1.14587403e+03
1.16973468e+03
1.63052995e+03
7.73175630e+02
1.41629553e+03
1.82887901e+03
7.93409895e+02
9.76856384e+02
0.00000000e+00
9.13479449e+02
7.87078634e+02
8.06155204e+02
0.00000000e+00
1.45281999e+03
9.69924142e+02
1.61695464e+03
9.79851746e+02
1.84512070e+03
1.57126149e+03
0.00000000e+00
1.40684397e+03
1.14969104e+03
8.44413347e+02
1.04140306e+03
6.49553260e+02
8.89149284e+02
7.54252322e+02
9.15216284e+02
9.80314004e+02
1.00953743e+03
0.00000000e+00
0.00000000e+00
8.53264353e+02
0.00000000e+00
1.10515062e+03
1.34597362e+03
1.48379461e+03
1.40363003e+03
1.13669129e+03
0.00000000e+00
0.00000000e+00
6.21026552e+02
4.53880296e+02
0.00000000e+00
2.24274095e+03
7.63176220e+02
1.26819913e+03