# vtk DataFile Version 3.0
MPS 3D Simulation Step 1200
ASCII
DATASET UNSTRUCTURED_GRID
POINTS 20213 double
-8.45732554e-04 3.84366217e-04 -8.26522066e-04
-7.80823085e-04 3.91869499e-04 -8.79077602e-04
-7.07624136e-04 3.95905791e-04 -9.30060170e-04
-6.28608867e-04 3.95639082e-04 -9.87181901e-04
-5.65090661e-04 3.71882766e-04 -1.03140474e-03
-5.10284449e-04 3.20564705e-04 -1.04617356e-03
-3.75672233e-04 3.36246257e-04 -1.10431155e-03
-3.01996943e-04 2.92613863e-04 -1.10832489e-03
-1.29889669e-04 3.02759586e-04 -1.14030567e-03
-5.80277806e-05 2.55747485e-04 -1.12701592e-03
1.01252319e-04 3.52239149e-04 -1.14598761e-03
2.95812755e-05 3.23961953e-04 -1.14447809e-03
1.12153117e-04 2.78401586e-04 -1.12079921e-03
1.94630038e-04 2.58910857e-04 -1.10050528e-03
2.72252362e-04 2.41580459e-04 -1.08044511e-03
4.32082771e-04 2.75615178e-04 -1.04274408e-03
5.01896474e-04 3.18263221e-04 -1.02685247e-03
6.40059628e-04 3.05956356e-04 -9.45242456e-04
7.01527654e-04 3.49464883e-04 -9.12507230e-04
7.57867242e-04 4.03061498e-04 -8.77672837e-04
8.42622121e-04 3.76317131e-04 -7.88249519e-04
-8.29178902e-04 4.56906815e-04 -8.45232583e-04
-7.58879074e-04 4.77290197e-04 -9.04139664e-04
-6.81646941e-04 4.65457562e-04 -9.60242153e-04
-5.95041026e-04 4.64035501e-04 -1.02985844e-03
-5.43972690e-04 5.15830300e-04 -1.06646797e-03
-5.25245634e-04 4.28825801e-04 -1.06462459e-03
-4.57161148e-04 3.71510792e-04 -1.08540981e-03
-3.11910247e-04 3.74286365e-04 -1.12549859e-03
-2.20350780e-04 3.28935517e-04 -1.13226550e-03
-5.20470853e-05 3.24887730e-04 -1.14918695e-03
3.62266345e-05 4.06321268e-04 -1.16028898e-03
1.86666510e-04 3.45074411e-04 -1.12385414e-03
2.69986081e-04 3.15842570e-04 -1.10316642e-03
3.35893725e-04 3.90832505e-04 -1.09796152e-03
3.49068874e-04 3.04292613e-04 -1.07569223e-03
4.16309816e-04 3.53739543e-04 -1.06764400e-03
4.81598415e-04 3.90031901e-04 -1.04833795e-03
5.71479138e-04 3.41374072e-04 -9.96461439e-04
6.40070076e-04 3.83255966e-04 -9.61672668e-04
7.02991515e-04 4.36549122e-04 -9.27006531e-04
8.15276731e-04 4.39784662e-04 -8.33633093e-04
-8.20992174e-04 5.34796404e-04 -8.62751498e-04
-7.66510332e-04 5.62703339e-04 -9.21180561e-04
-7.07177040e-04 5.46095304e-04 -9.66183759e-04
-6.40195656e-04 5.23129046e-04 -1.01442455e-03
-5.97972705e-04 5.79984755e-04 -1.04860937e-03
-4.67809562e-04 4.62671616e-04 -1.09303610e-03
-3.96401361e-04 5.09661802e-04 -1.11810315e-03
-4.00573069e-04 4.18178485e-04 -1.11099751e-03
-3.27397693e-04 4.61395988e-04 -1.12659915e-03
-2.40690845e-04 4.97689064e-04 -1.14608346e-03
-9.03291581e-05 4.77653520e-04 -1.17074163e-03
2.16099517e-04 4.56422462e-04 -1.13614519e-03
3.10305759e-04 4.67380040e-04 -1.11423305e-03
4.09950449e-04 4.36670715e-04 -1.08002141e-03
3.78288431e-04 5.06018222e-04 -1.09614665e-03
4.82536969e-04 4.68562245e-04 -1.05382875e-03
5.51553659e-04 5.13765369e-04 -1.02446063e-03
5.56837809e-04 4.21680966e-04 -1.01283226e-03
6.22913910e-04 4.60866910e-04 -9.78474594e-04
6.94130304e-04 5.17652061e-04 -9.45717909e-04
7.64421935e-04 4.94818356e-04 -8.85394498e-04
-8.49664656e-04 6.12065623e-04 -8.49841187e-04
-7.99692012e-04 6.33482139e-04 -9.10090206e-04
-6.65438030e-04 6.05881276e-04 -1.01243031e-03
-5.83103168e-04 6.60822252e-04 -1.06239450e-03
-5.21295384e-04 6.00462215e-04 -1.08147404e-03
-4.65408825e-04 5.44879414e-04 -1.09741400e-03
-3.86511894e-04 5.96346720e-04 -1.12088164e-03
-3.14729313e-04 5.44287960e-04 -1.13460866e-03
-2.27817611e-04 5.78563325e-04 -1.15118933e-03
-1.55387789e-04 5.22941072e-04 -1.16318220e-03
1.73289083e-05 5.37827161e-04 -1.18154560e-03
9.55224177e-05 4.78085349e-04 -1.16413474e-03
1.69754926e-04 5.21245414e-04 -1.15409668e-03
2.56187412e-04 5.29207395e-04 -1.13387051e-03
3.28813347e-04 5.68645079e-04 -1.11788167e-03
4.52652599e-04 5.44564016e-04 -1.07104576e-03
5.25825694e-04 5.89126606e-04 -1.05208481e-03
6.24365554e-04 5.44935092e-04 -9.96050930e-04
6.77818805e-04 5.97680936e-04 -9.75781746e-04
7.49067949e-04 5.71974451e-04 -9.14117286e-04
8.17436123e-04 5.88486611e-04 -8.60948449e-04
-8.47397866e-04 6.99795251e-04 -8.70365630e-04
-7.31899549e-04 6.38180073e-04 -9.69958327e-04
-6.54887802e-04 6.80630843e-04 -1.02804621e-03
-6.04566223e-04 7.41846680e-04 -1.05506333e-03
-5.20757046e-04 7.00974325e-04 -1.08834951e-03
-4.54366750e-04 6.44363618e-04 -1.10518971e-03
-3.02105130e-04 6.27809593e-04 -1.14231954e-03
-2.25616670e-04 6.63120047e-04 -1.15897401e-03
-1.47440901e-04 6.04060579e-04 -1.16748190e-03
-6.28549031e-05 5.58793372e-04 -1.17764690e-03
1.88884558e-05 6.18841996e-04 -1.18489930e-03
9.30776070e-05 5.60700415e-04 -1.17464420e-03
1.70709315e-04 6.03435553e-04 -1.16413161e-03
2.57609351e-04 7.00383748e-04 -1.15582718e-03
2.54243186e-04 6.14148566e-04 -1.14304154e-03
4.06687718e-04 6.05124609e-04 -1.09944952e-03
4.82191358e-04 6.47730196e-04 -1.08126429e-03
5.92773515e-04 6.18674555e-04 -1.02853253e-03
6.46205599e-04 6.70462789e-04 -1.01108181e-03
7.26665234e-04 6.54009824e-04 -9.52947087e-04
7.89846055e-04 6.52074042e-04 -8.99730307e-04
-8.78244942e-04 7.72582689e-04 -8.47462190e-04
-7.84150856e-04 7.03956430e-04 -9.37667129e-04
-7.14183011e-04 7.11915948e-04 -9.96937610e-04
-6.70883899e-04 7.80672222e-04 -1.02458941e-03
-5.31032254e-04 7.82201069e-04 -1.08555832e-03
-3.77112351e-04 7.64254104e-04 -1.13797803e-03
-3.76768169e-04 6.80258254e-04 -1.13003005e-03
-3.01620055e-04 7.12768812e-04 -1.15155828e-03
-1.41936402e-04 6.84073219e-04 -1.17318822e-03
-6.45691715e-05 6.38004309e-04 -1.18140559e-03
1.71621885e-05 6.98482867e-04 -1.19163910e-03
9.88792917e-05 6.46546960e-04 -1.18029573e-03
1.78307392e-04 6.86489605e-04 -1.17255962e-03
3.28726101e-04 7.42837052e-04 -1.14294835e-03
3.31999877e-04 6.52840697e-04 -1.12934222e-03
4.03866989e-04 7.63193455e-04 -1.12473110e-03
4.85145292e-04 7.28350295e-04 -1.09358184e-03
5.56806182e-04 6.89413033e-04 -1.05848284e-03
6.24375347e-04 7.43267718e-04 -1.03459196e-03
7.69319365e-04 7.29440769e-04 -9.32928501e-04
8.31004348e-04 7.20613154e-04 -8.79356804e-04
-8.54144088e-04 8.55615614e-04 -8.77217769e-04
-8.23083767e-04 7.73202825e-04 -9.09399481e-04
-7.22616456e-04 8.40252492e-04 -9.96306943e-04
-6.01096413e-04 8.27608560e-04 -1.05820375e-03
-5.22875535e-04 8.65947016e-04 -1.09004703e-03
-4.54374446e-04 8.18246206e-04 -1.11609092e-03
-2.98898940e-04 7.94850344e-04 -1.16035002e-03
-2.20117637e-04 7.44904060e-04 -1.16811817e-03
-1.42382969e-04 7.68898728e-04 -1.17938983e-03
-6.27411735e-05 7.20914250e-04 -1.18456961e-03
1.27443981e-05 7.79131728e-04 -1.19500467e-03
9.35652306e-05 7.29341498e-04 -1.18903430e-03
1.71408749e-04 7.68965388e-04 -1.18059641e-03
2.49111121e-04 7.79036523e-04 -1.16832764e-03
3.17049603e-04 8.28244013e-04 -1.15484751e-03
4.74457574e-04 8.06644553e-04 -1.10568987e-03
5.43656501e-04 8.56508342e-04 -1.08194294e-03
5.55055355e-04 7.72045374e-04 -1.07028440e-03
6.17005031e-04 8.26996617e-04 -1.04752850e-03
8.19300528e-04 7.99559983e-04 -8.94707728e-04
8.18533171e-04 8.77464331e-04 -9.00764903e-04
-8.92679377e-04 9.21685279e-04 -8.30550116e-04
-7.98609583e-04 8.40724367e-04 -9.38642512e-04
-7.55449934e-04 7.72556589e-04 -9.71742044e-04
-6.60291531e-04 8.80510694e-04 -1.03033488e-03
-4.45891994e-04 9.03939731e-04 -1.12130355e-03
-3.75626754e-04 8.43652093e-04 -1.14473409e-03
-2.99435719e-04 8.75223334e-04 -1.16633070e-03
-2.20548761e-04 8.27518789e-04 -1.17494899e-03
-1.42310981e-04 8.59681297e-04 -1.18686050e-03
-6.74526485e-05 8.08325788e-04 -1.19034223e-03
1.31300914e-05 8.61714497e-04 -1.19528256e-03
9.09032313e-05 8.13147263e-04 -1.19197661e-03
1.60237044e-04 8.55479838e-04 -1.18702684e-03
2.37333182e-04 8.59299923e-04 -1.17667717e-03
3.16775844e-04 9.10378257e-04 -1.16040396e-03
3.92901719e-04 8.41111930e-04 -1.13392024e-03
4.68411597e-04 8.88007706e-04 -1.11261658e-03
6.27751713e-04 9.05620283e-04 -1.04512936e-03
7.01007447e-04 7.26169234e-04 -9.85610971e-04
7.50122472e-04 8.03597676e-04 -9.54661114e-04
8.76473552e-04 9.16145231e-04 -8.48089676e-04
-8.59736053e-04 9.84740282e-04 -8.67571735e-04
-8.23305769e-04 9.28534674e-04 -9.07792392e-04
-7.67814224e-04 9.04937605e-04 -9.64056656e-04
-5.90090514e-04 9.16257108e-04 -1.06260869e-03
-5.17644042e-04 9.52298302e-04 -1.09398069e-03
-3.73370719e-04 9.27615305e-04 -1.14827310e-03
-2.94953467e-04 9.51665892e-04 -1.16974136e-03
-2.17698042e-04 9.10147758e-04 -1.18159928e-03
-1.37429029e-04 9.45382778e-04 -1.19260085e-03
-6.35030720e-05 8.98241798e-04 -1.19511327e-03
9.61558131e-06 9.45067084e-04 -1.19668946e-03
8.84701730e-05 8.99936048e-04 -1.19377824e-03
1.60737396e-04 9.45321883e-04 -1.18791781e-03
2.39119236e-04 9.38651642e-04 -1.17642856e-03
3.14511968e-04 9.89967181e-04 -1.15716509e-03
3.94199327e-04 9.22450050e-04 -1.13603132e-03
4.79634239e-04 9.63870683e-04 -1.10913370e-03
5.57492662e-04 9.34361108e-04 -1.07784996e-03
6.84693489e-04 8.02652370e-04 -1.00594364e-03
7.57414619e-04 8.84613115e-04 -9.55134234e-04
8.16264049e-04 9.59596318e-04 -9.04026870e-04
-8.90015608e-04 1.04048883e-03 -8.23959020e-04
-8.13433353e-04 1.03869238e-03 -9.06355477e-04
-7.11463535e-04 9.42439853e-04 -1.00083768e-03
-6.47771303e-04 9.71495237e-04 -1.03556982e-03
-5.79977613e-04 1.00903970e-03 -1.06938937e-03
-4.47160393e-04 9.92142356e-04 -1.12380410e-03
-3.72768072e-04 1.00901463e-03 -1.14794035e-03
-2.11273322e-04 9.91712726e-04 -1.18339473e-03
-1.42415672e-04 1.03150421e-03 -1.18984613e-03
-6.56387642e-05 9.89623256e-04 -1.19501216e-03
4.24733336e-06 1.03265530e-03 -1.19203689e-03
8.14159534e-05 9.90536989e-04 -1.19231246e-03
1.54612948e-04 1.03144814e-03 -1.18328564e-03
2.31707672e-04 1.01625722e-03 -1.17199542e-03
3.11654519e-04 1.06838679e-03 -1.14629261e-03
3.96876837e-04 9.99464216e-04 -1.13285731e-03
4.70784690e-04 1.04494555e-03 -1.10720489e-03
5.45963952e-04 1.01708209e-03 -1.08093365e-03
6.18302359e-04 9.90049919e-04 -1.04800621e-03
7.52979681e-04 9.66269537e-04 -9.61283413e-04
8.62798548e-04 1.07661273e-03 -8.57808118e-04
-8.48275930e-04 1.09895847e-03 -8.63161068e-04
-7.96121168e-04 1.14138176e-03 -9.11136928e-04
[...]
POINT_DATA 20213
SCALARS pressure double 1
LOOKUP_TABLE default
6.41069065e+02
0.00000000e+00
6.13791327e+02
7.37806691e+02
0.00000000e+00
0.00000000e+00
0.00000000e+00
0.00000000e+00
1.19781186e+03
1.26711844e+03
1.10862273e+03
1.13873956e+03
0.00000000e+00
9.56669311e+02
0.00000000e+00
0.00000000e+00
0.00000000e+00
9.97249593e+02
8.35377991e+02
0.00000000e+00
0.00000000e+00
8.45852297e+02
0.00000000e+00
8.14984302e+02
8.73801524e+02
0.00000000e+00
0.00000000e+00
0.00000000e+00
0.00000000e+00
9.70687983e+02
1.20948183e+03
0.00000000e+00
1.21380445e+03
1.14927258e+03
1.30406031e+03
1.09246979e+03
1.04978247e+03
0.00000000e+00
0.00000000e+00
9.29756456e+02
0.00000000e+00
0.00000000e+00
8.96345055e+02
9.33619485e+02
0.00000000e+00
0.00000000e+00
1.22445729e+03
9.59188466e+02
0.00000000e+00
8.30748271e+02
9.99738445e+02
1.06472718e+03
0.00000000e+00
1.20250069e+03
1.25970808e+03
1.09934305e+03
1.13853640e+03
9.94666339e+02
8.66732601e+02
9.31691936e+02
8.50214806e+02
0.00000000e+00
0.00000000e+00
0.00000000e+00
0.00000000e+00
1.22748298e+03
1.47830200e+03
1.36852650e+03
1.21325855e+03
1.30774191e+03
1.16672393e+03
1.06478851e+03
0.00000000e+00
0.00000000e+00
0.00000000e+00
0.00000000e+00
1.04652492e+03
9.80100024e+02
8.87953567e+02
7.49027246e+02
0.00000000e+00
8.21065203e+02
8.64644330e+02
9.50101832e+02
1.02763872e+03
0.00000000e+00
1.50715531e+03
1.51863676e+03
1.52489223e+03
1.42810769e+03
1.25798133e+03
1.15575132e+03
0.00000000e+00
0.00000000e+00
0.00000000e+00
0.00000000e+00
0.00000000e+00
7.44048418e+02
7.89280860e+02
0.00000000e+00
0.00000000e+00
7.95410952e+02
0.00000000e+00
8.47257478e+02
9.33660624e+02
0.00000000e+00
1.10632299e+03
1.31841382e+03
1.29322588e+03
1.44406137e+03
1.28271858e+03
1.35799007e+03
1.24917346e+03
8.63574555e+02
0.00000000e+00
0.00000000e+00
0.00000000e+00
0.00000000e+00
0.00000000e+00
0.00000000e+00
6.05369765e+02
0.00000000e+00
0.00000000e+00
0.00000000e+00
9.57090178e+02
0.00000000e+00
1.16449762e+03
1.18491929e+03
1.11418766e+03
1.34584394e+03
1.25005393e+03
0.00000000e+00
0.00000000e+00
1.14170677e+03
9.41880445e+02
0.00000000e+00
0.00000000e+00
0.00000000e+00
0.00000000e+00
8.26196375e+02
7.88708821e+02
0.00000000e+00
0.00000000e+00
4.98439382e+02
0.00000000e+00
9.91725365e+02
8.95385000e+02
1.15170439e+03
1.21687636e+03
0.00000000e+00
1.14097243e+03
1.06982297e+03
0.00000000e+00
0.00000000e+00
1.11964046e+03
1.07283731e+03
0.00000000e+00
0.00000000e+00
9.13589654e+02
1.11824949e+03
0.00000000e+00
0.00000000e+00
7.64265324e+02
0.00000000e+00
0.00000000e+00
0.00000000e+00
8.73353345e+02
0.00000000e+00
1.28204861e+03
1.28344080e+03
1.10563490e+03
9.85405279e+02
9.31015031e+02
9.82212389e+02
8.89634992e+02
1.02363125e+03
0.00000000e+00
1.08077932e+03
1.32919707e+03
1.30825132e+03
1.35875489e+03
1.09559653e+03
0.00000000e+00
8.57585123e+02
0.00000000e+00
6.05937289e+02
6.03985745e+02
0.00000000e+00
7.08932051e+02
1.49274950e+03
1.11617589e+03
0.00000000e+00
0.00000000e+00
0.00000000e+00
7.83292729e+02
0.00000000e+00
1.08992186e+03
1.29616989e+03
1.32913978e+03
1.46497159e+03
1.49600537e+03
1.39099595e+03
1.20897832e+03
1.03267189e+03
8.91862923e+02
6.40583987e+02
0.00000000e+00
0.00000000e+00
0.00000000e+00
0.00000000e+00
1.30279588e+03
1.06925853e+03
0.00000000e+00
0.00000000e+00
0.00000000e+00
0.00000000e+00
0.00000000e+00
9.50267358e+02
1.00143523e+03
1.26395634e+03
1.44028451e+03
1.40264553e+03
1.44524475e+03
1.08040373e+03
0.00000000e+00
8.10145858e+02
0.00000000e+00
6.59967783e+02
6.00677241e+02
0.00000000e+00
0.00000000e+00
1.47251271e+03
1.21511590e+03
0.00000000e+00
0.00000000e+00
0.00000000e+00
0.00000000e+00
5.32978997e+02
0.00000000e+00
6.90357018e+02
0.00000000e+00
0.00000000e+00
1.14504704e+03
1.30149360e+03
8.92583498e+02
7.05264466e+02
0.00000000e+00
0.00000000e+00
0.00000000e+00
5.68891515e+02
0.00000000e+00
0.00000000e+00
9.97100724e+02
0.00000000e+00
0.00000000e+00
0.00000000e+00
0.00000000e+00
0.00000000e+00
0.00000000e+00
0.00000000e+00
0.00000000e+00
8.76446667e+02
0.00000000e+00
8.72215674e+02
9.83686326e+02
0.00000000e+00
7.12331076e+02
7.43861587e+02
7.24934014e+02
7.91681153e+02
0.00000000e+00
0.00000000e+00
0.00000000e+00
0.00000000e+00
0.00000000e+00
0.00000000e+00
0.00000000e+00
0.00000000e+00
0.00000000e+00
0.00000000e+00
3.37423078e+02
0.00000000e+00
8.24185524e+02
8.53658731e+02
0.00000000e+00
0.00000000e+00
0.00000000e+00
0.00000000e+00
7.22804555e+02
0.00000000e+00
6.55163349e+02
0.00000000e+00
0.00000000e+00
0.00000000e+00
0.00000000e+00
0.00000000e+00
0.00000000e+00
0.00000000e+00
0.00000000e+00
0.00000000e+00
0.00000000e+00
5.24510686e+02
0.00000000e+00
6.37618953e+02
7.00128230e+02
0.00000000e+00
0.00000000e+00
0.00000000e+00
0.00000000e+00
8.70881418e+02
1.01332275e+03
9.69469114e+02
0.00000000e+00
0.00000000e+00
4.51445562e+02
7.37831455e+02
0.00000000e+00
0.00000000e+00
0.00000000e+00
0.00000000e+00
0.00000000e+00
5.71336672e+02
0.00000000e+00
5.93356562e+02
0.00000000e+00
6.51412699e+02
0.00000000e+00
0.00000000e+00
6.96016547e+02
0.00000000e+00
7.71726925e+02
8.93881027e+02
8.98907372e+02
7.89990788e+02
8.85943562e+02
7.71570484e+02
5.17682630e+02
0.00000000e+00
0.00000000e+00
0.00000000e+00
0.00000000e+00
4.50652264e+02
0.00000000e+00
6.16937831e+02
0.00000000e+00
0.00000000e+00
6.66885775e+02
6.51564744e+02
6.97873902e+02
6.49257604e+02
7.65198567e+02
0.00000000e+00
0.00000000e+00
0.00000000e+00
9.26011409e+02
9.76452411e+02
1.01856591e+03
0.00000000e+00
0.00000000e+00
0.00000000e+00
0.00000000e+00
0.00000000e+00
0.00000000e+00
2.19071614e+02
0.00000000e+00
5.64917423e+02
0.00000000e+00
0.00000000e+00
7.97813142e+02
7.29188240e+02
7.66240322e+02
0.00000000e+00
0.00000000e+00
0.00000000e+00
7.18004981e+02
0.00000000e+00
0.00000000e+00
9.87047532e+02
0.00000000e+00
0.00000000e+00
0.00000000e+00
0.00000000e+00
0.00000000e+00
0.00000000e+00
0.00000000e+00
0.00000000e+00
0.00000000e+00
0.00000000e+00
0.00000000e+00
6.87232641e+02
0.00000000e+00
0.00000000e+00
5.16083036e+02
0.00000000e+00
0.00000000e+00
0.00000000e+00
0.00000000e+00
9.56526949e+02
0.00000000e+00
0.00000000e+00
0.00000000e+00
0.00000000e+00
0.00000000e+00
0.00000000e+00
0.00000000e+00
0.00000000e+00
0.00000000e+00
0.00000000e+00
0.00000000e+00
0.00000000e+00
0.00000000e+00
2.64728713e+02
0.00000000e+00
0.00000000e+00
0.00000000e+00
0.00000000e+00
0.00000000e+00
0.00000000e+00
8.56564055e+02
9.38649545e+02
0.00000000e+00
0.00000000e+00
0.00000000e+00
6.37768098e+02
0.00000000e+00
6.28012905e+02
0.00000000e+00
0.00000000e+00
3.54296808e+02
0.00000000e+00
0.00000000e+00
0.00000000e+00
0.00000000e+00
0.00000000e+00
0.00000000e+00
0.00000000e+00
0.00000000e+00
6.96377399e+02
0.00000000e+00
1.03935851e+03
1.15902221e+03
0.00000000e+00
0.00000000e+00
0.00000000e+00
0.00000000e+00
0.00000000e+00
0.00000000e+00
0.00000000e+00
0.00000000e+00
9.77169376e+02
1.08612164e+03
1.22680019e+03
0.00000000e+00
0.00000000e+00
8.41918302e+02
9.05389469e+02
1.00217763e+03
9.54102535e+02
0.00000000e+00
0.00000000e+00
0.00000000e+00
0.00000000e+00
0.00000000e+00
1.37173369e+03
8.54304911e+02
7.78429780e+02
8.31415431e+02
9.97756280e+02
8.71195261e+02
1.26911054e+03
1.11938353e+03
1.23960665e+03
1.16595491e+03
1.29994753e+03
1.15204634e+03
1.18181370e+03
1.28331038e+03
1.12066627e+03
1.09116006e+03
9.68799421e+02
9.82481149e+02
1.02678006e+03
6.32539962e+02
9.33704665e+02
9.70588205e+02
9.56409475e+02
1.05235454e+03
1.19876400e+03
9.64118927e+02
7.91310845e+02
0.00000000e+00
0.00000000e+00
0.00000000e+00
0.00000000e+00
0.00000000e+00
1.02812700e+03
1.31857588e+03
1.26785274e+03
1.12913146e+03
1.29194965e+03
9.69296707e+02
8.85723821e+02
6.12040853e+02
8.07173252e+02
9.50621944e+02
1.13287200e+03
1.19801975e+03
1.34012101e+03
1.20718443e+03
1.14796681e+03
9.64469783e+02
1.08610088e+03
1.20689665e+03
1.29095845e+03
1.25001926e+03
1.09047406e+03
1.34171947e+03
1.17837033e+03
1.33285450e+03
1.26328496e+03
1.13486291e+03
1.26666911e+03
1.01182246e+03
9.86806827e+02
8.88431196e+02
9.27454705e+02
1.08108844e+03
1.35789299e+03
1.18408245e+03
1.42685838e+03
1.23653069e+03
1.23177289e+03
1.04737841e+03
9.92026885e+02
8.33500326e+02
7.84737017e+02
9.14854012e+02
1.24301172e+03
1.15003054e+03
1.27888359e+03
1.18718672e+03
1.24260469e+03
1.02063438e+03
1.16256758e+03
8.84473587e+02
8.22707513e+02
9.48257347e+02
1.31428086e+03
1.20669708e+03
1.29301326e+03
1.47848741e+03
1.41177771e+03
1.20184268e+03
1.26008120e+03
1.16843928e+03
9.04431265e+02
7.69230979e+02
7.70340371e+02
9.49055080e+02
1.21737478e+03
1.30016031e+03
0.00000000e+00
9.90593323e+02
9.68092845e+02
1.05772610e+03
1.02559951e+03
0.00000000e+00
0.00000000e+00
1.17687591e+03
1.33226170e+03
1.44062762e+03
1.54391717e+03
1.51734388e+03
1.31461338e+03
1.20899458e+03
1.35860944e+03
1.01982543e+03
7.57478771e+02
8.63679489e+02
1.09565343e+03
9.17040076e+02
9.10673167e+02
8.54918923e+02
1.13878534e+03
8.59117152e+02
1.01075018e+03
1.07074492e+03
0.00000000e+00
0.00000000e+00
1.24777039e+03
0.00000000e+00
1.32267858e+03
1.36348566e+03
1.48387499e+03
1.23257022e+03
1.21441129e+03
1.19197062e+03
1.13343385e+03
9.57594257e+02
1.14747803e+03
1.06829918e+03
1.05045771e+03
9.47922316e+02
8.15596977e+02
7.80774340e+02
8.42393192e+02
0.00000000e+00
1.07303664e+03
9.33003182e+02
0.00000000e+00
1.38668768e+03
0.00000000e+00
1.44336256e+03
1.04156305e+03
1.26978381e+03
1.33924824e+03
1.35129325e+03
1.35807037e+03
1.29421205e+03
1.19074326e+03
1.08770773e+03
1.21705451e+03
1.16988490e+03
8.51136776e+02
8.22644685e+02
9.98974750e+02
1.11540042e+03
4.57762574e+02
1.18031439e+03
9.30298545e+02
1.24368663e+03
1.29759351e+03
0.00000000e+00
9.86097507e+02
9.03529790e+02
1.15064777e+03
1.12044749e+03
1.21558493e+03
1.29272804e+03
1.32174934e+03
1.25791167e+03
1.40558439e+03
1.25011760e+03
1.29658081e+03
1.11585041e+03
9.82900268e+02
8.08521019e+02
7.25773801e+02
0.00000000e+00
9.12645679e+02
0.00000000e+00
1.50831663e+03
1.37229736e+03
0.00000000e+00
1.22186993e+03
6.25813777e+02
4.91286860e+02
8.98533759e+02
1.21778016e+03
1.24302483e+03
1.33644630e+03
1.37622893e+03
1.40219434e+03
1.36007870e+03
1.29428115e+03
1.09022930e+03
9.32633245e+02
7.46495858e+02
1.38152254e+03
0.00000000e+00
1.13748400e+03
0.00000000e+00
1.36303450e+03
1.31115495e+03
0.00000000e+00
6.51731708e+02
3.33790293e+02
5.52826122e+02
9.35454979e+02
1.33542674e+03
1.01229251e+03
1.34284452e+03
1.35615256e+03
1.41648021e+03
1.32845416e+03
1.28503821e+03
1.12911084e+03
9.42771395e+02
8.54461887e+02
6.65797124e+02
0.00000000e+00
6.97051307e+02
0.00000000e+00
1.28659745e+03
1.30910750e+03
0.00000000e+00
9.88226476e+02
9.11154232e+02
2.26746919e+02
3.95622029e+02
1.41871030e+03
1.39795517e+03
1.21680775e+03
1.19280356e+03
1.22687624e+03
1.36981957e+03
1.23744399e+03
9.15364837e+02
8.54743788e+02
1.00840471e+03
9.50997832e+02
0.00000000e+00
9.75908204e+02
0.00000000e+00
1.05975894e+03
1.30804408e+03
0.00000000e+00
4.59355571e+02
1.90064843e+02
2.31127901e+02
6.63295629e+02
1.07180633e+03
1.01146446e+03
1.16529632e+03
1.09214441e+03
1.18941457e+03
1.06182850e+03
1.16862457e+03
9.63195826e+02
8.21061870e+02
7.69353286e+02
6.81765854e+02
0.00000000e+00
5.65977669e+02
0.00000000e+00
9.15225462e+02
1.13088884e+03
6.53613189e+02
3.62638516e+02
7.71905814e+02
1.95746463e+02
5.56024744e+02
8.57622106e+02
7.16117193e+02
9.56846590e+02
9.27221607e+02
9.23727279e+02
8.04054766e+02
9.72283021e+02
8.75208246e+02
9.55124736e+02
1.01110460e+03
7.55039542e+02
7.57872909e+02
5.91663248e+02
0.00000000e+00
7.00262121e+02
9.11579260e+02
5.98976898e+02
3.28473431e+02
3.52508830e+02
4.71237388e+02
5.35072560e+02
6.64530202e+02
7.19764595e+02
8.18116092e+02
8.03638899e+02
7.91116074e+02
8.53309724e+02
8.91019404e+02
8.89889410e+02
8.79967854e+02
1.04239186e+03
9.54613271e+02
1.01377997e+03
8.33669765e+02
8.32329612e+02
0.00000000e+00
7.58158432e+02
8.41998738e+02
3.39571190e+02
7.38117483e+02
4.40402770e+02
9.25500036e+02
6.85097999e+02
8.50517648e+02
7.50137680e+02
7.73504177e+02
8.02569648e+02
9.77111360e+02
8.56801011e+02
1.13419434e+03
9.97648509e+02
1.16614352e+03
1.02264822e+03
1.14898093e+03
1.00888582e+03
0.00000000e+00
0.00000000e+00
5.72995666e+02
4.99715261e+02
7.35918745e+02
3.44985410e+02
4.07795646e+02
5.35611604e+02
5.35911358e+02
7.66386275e+02
6.00378480e+02
9.04996359e+02
6.39726286e+02
9.31721780e+02
8.11885634e+02
8.36405603e+02
9.14775416e+02
8.37296251e+02
1.13110660e+03
1.00025320e+03
1.05850933e+03
8.33444779e+02
0.00000000e+00
4.67062324e+02
4.61736092e+02
4.16816953e+02
8.16619664e+02
3.91472916e+02
3.87138000e+02
0.00000000e+00
0.00000000e+00
4.89022431e+02
0.00000000e+00
0.00000000e+00
0.00000000e+00
0.00000000e+00
7.42004382e+02
7.43092967e+02
1.08866247e+03
9.29567704e+02
1.03265796e+03
1.00825337e+03
7.88227032e+02
0.00000000e+00
7.85662674e+02
5.18985973e+02
4.58208430e+02
6.21685547e+02
4.51122196e+02
4.21911475e+02
3.94272311e+02
7.61368192e+02
4.38322785e+02
8.21632799e+02
4.90678805e+02
7.82506595e+02
5.65631385e+02
6.54044079e+02
6.93210586e+02
8.21802170e+02
8.94739029e+02
1.14096078e+03
1.15645872e+03
1.00188669e+03
0.00000000e+00
0.00000000e+00
0.00000000e+00
0.00000000e+00
9.96453604e+02
8.41094323e+02
0.00000000e+00
0.00000000e+00
0.00000000e+00
0.00000000e+00
0.00000000e+00
3.69025411e+02
0.00000000e+00
0.00000000e+00
0.00000000e+00
0.00000000e+00
8.52466799e+02
8.88125749e+02
0.00000000e+00
1.15297965e+03
7.78085702e+02
0.00000000e+00
6.80091214e+02
0.00000000e+00
0.00000000e+00
0.00000000e+00
0.00000000e+00
0.00000000e+00
0.00000000e+00
0.00000000e+00
0.00000000e+00
7.22680838e+02
6.89751072e+02
0.00000000e+00
0.00000000e+00
9.84005264e+02
1.01933360e+03
8.74864652e+02
0.00000000e+00
0.00000000e+00
0.00000000e+00
0.00000000e+00
7.71398446e+02
1.11295627e+03
7.98468951e+02
7.15788390e+02
1.07371944e+03
8.12841619e+02
7.98874532e+02
0.00000000e+00
1.18484379e+03
0.00000000e+00
1.10853903e+03
1.05631581e+03
1.15308322e+03
0.00000000e+00
1.14122159e+03
1.11748379e+03
1.03474504e+03
1.00796620e+03
7.44908402e+02
4.06200133e+02
0.00000000e+00
8.43804056e+02
9.65530509e+02
1.63508005e+03
1.11936125e+03
1.24956149e+03
1.24823305e+03
1.11077819e+03
1.21341630e+03
1.18761493e+03
1.21674290e+03
1.15436887e+03
1.10566481e+03
1.25287828e+03
1.10029356e+03
1.17864326e+03
1.20111560e+03
1.30353774e+03
1.15996057e+03
1.34571122e+03
7.18542502e+02
6.49470843e+02
9.01393096e+02
1.09142044e+03
1.23861713e+03
1.26018161e+03
1.40968820e+03
1.28482508e+03
1.31361536e+03
1.30021196e+03
1.15231971e+03
1.14146890e+03
1.20042903e+03
1.17601743e+03
1.27712970e+03
1.27833734e+03
1.17333891e+03
1.25134089e+03
1.44858665e+03
1.16566555e+03
1.06594191e+03
7.63846006e+02
6.74340179e+02
9.17882750e+02
1.32578379e+03
1.43922052e+03
1.55744860e+03
1.52404708e+03
1.50050505e+03
1.30951399e+03
1.22749403e+03
1.20796147e+03
1.22918822e+03
1.19674866e+03
1.24446473e+03
1.30701053e+03
1.25343766e+03
1.26655412e+03
1.57709811e+03
1.37029464e+03
1.51903193e+03
1.43444581e+03
1.00477520e+03
0.00000000e+00
0.00000000e+00
1.15014674e+03
1.32783799e+03
1.47771236e+03
1.84906718e+03
1.48355447e+03
1.34915300e+03
1.25233889e+03
1.31281084e+03
1.23393251e+03
1.40746014e+03
1.28947257e+03
1.32763834e+03
1.22333447e+03
1.22483104e+03
1.38442293e+03
1.43200454e+03
1.14366509e+03
1.16525225e+03
6.24791157e+02
6.83774490e+02
0.00000000e+00
1.09314187e+03
1.48444561e+03
1.40341967e+03
1.81261241e+03
1.53490833e+03
1.45646369e+03
1.43117165e+03
1.30661655e+03
1.16690445e+03
1.12491055e+03
1.12896938e+03
1.39241610e+03
1.01015165e+03
1.12668132e+03
1.11385761e+03
1.53255285e+03
1.30163337e+03
1.20156187e+03
8.55971144e+02
7.40646932e+02
0.00000000e+00
0.00000000e+00
1.36585567e+03
1.52549613e+03
1.37626438e+03
1.45318214e+03
1.55066603e+03
1.37989638e+03
1.32805148e+03
1.32166006e+03
1.05235259e+03
1.25098073e+03
1.22031129e+03
1.12274419e+03
8.76816765e+02
1.11762059e+03
1.10223677e+03
1.45204151e+03
1.22687966e+03
8.10136005e+02
0.00000000e+00
0.00000000e+00
1.39932147e+03
1.66894597e+03
1.31114453e+03
1.42631870e+03
1.75712483e+03
1.49353801e+03
1.47528246e+03
1.60516409e+03
1.30257934e+03
1.26485524e+03
1.32200564e+03
1.31976288e+03
1.12576991e+03
1.31209732e+03
1.78245946e+03
1.32202968e+03
1.05138851e+03
1.31070301e+03
0.00000000e+00
8.38134969e+02
1.03739342e+03
1.42159820e+03
1.44671567e+03
1.22471107e+03
1.34863636e+03
1.57453669e+03
1.34393599e+03
1.40584746e+03
1.33817784e+03
1.30820335e+03
1.30286033e+03
1.26778036e+03
1.31848420e+03
1.28133753e+03
1.07504721e+03
1.32124382e+03
1.12061712e+03
8.87428382e+02
1.42357419e+03
8.84517997e+02
8.03157315e+02
1.49675300e+03
1.58664785e+03
1.52087584e+03
1.04515018e+03
1.51061793e+03
1.97158014e+03
1.02693620e+03
1.19226672e+03
1.58762786e+03
1.35150842e+03
1.48031715e+03
1.38577708e+03
1.45117192e+03
1.19254924e+03
1.06654309e+03
1.79160955e+03
1.70646080e+03
7.07273968e+02
1.39480016e+03
8.14240038e+02
7.63166355e+02
1.38557702e+03
1.58886473e+03
1.51946344e+03
9.44634115e+02
1.16073950e+03
1.47129073e+03
8.41618557e+02
1.73824970e+03
1.62611970e+03
1.20072678e+03
1.41524506e+03
1.36615464e+03
1.39156275e+03
1.45578260e+03
1.09628966e+03
1.53483014e+03
1.00319410e+03
5.61784535e+02
1.34493545e+03
8.22815455e+02
6.43606362e+02
1.23554361e+03
1.54444230e+03
1.49066551e+03
7.70355653e+02
1.43700556e+03
1.75100697e+03
1.38698667e+03
1.41643083e+03
1.67064721e+03
1.39917579e+03
1.39699142e+03
1.41750052e+03
1.67403691e+03
1.08919266e+03
1.30811140e+03
1.39040116e+03
1.36237999e+03
5.80917785e+02
1.39267118e+03
7.08803859e+02
0.00000000e+00
1.02792995e+03
1.52816043e+03
1.42872016e+03
1.09172092e+03
1.32193131e+03
6.85705450e+02
3.91029646e+02
9.23846269e+02
9.45439263e+02
1.25410701e+03
1.08986319e+03
1.30460517e+03
1.37387266e+03
1.12261455e+03
9.34899737e+02
1.02716189e+03
1.31188727e+03
9.78027860e+02
9.08222448e+02
0.00000000e+00
0.00000000e+00
1.05112489e+03
1.20760046e+03
1.21435611e+03
9.17803892e+02
1.44997321e+03
6.64414091e+02
2.75961517e+02
5.60733430e+02
1.17754630e+03
9.12982271e+02
9.52904619e+02
1.02952831e+03
1.30789633e+03
9.51815860e+02
9.60649083e+02
1.08431431e+03
1.65134246e+03
1.14067884e+03
9.84614893e+02
7.14960503e+02
6.03489230e+02
0.00000000e+00
9.74276734e+02
1.33619842e+03
6.46784107e+02
1.89905322e+03
1.41866449e+03
7.01399763e+02
9.16705848e+02
1.24885278e+03
1.18246032e+03
1.67855715e+03
1.23843335e+03
1.25983991e+03
1.07922049e+03
1.11638370e+03
1.31127415e+03
1.59244854e+03
1.11365343e+03
1.07731527e+03
8.68029380e+02
0.00000000e+00
0.00000000e+00
1.02883617e+03
1.43924769e+03
1.44952997e+03
1.52968803e+03
1.74120146e+03
1.78179859e+03
8.63660321e+02
1.37306080e+03
7.43387842e+02
1.64876808e+03
8.13334178e+02
1.21258250e+03
1.03321673e+03
1.35081165e+03
1.58581647e+03
1.51396640e+03
1.27112665e+03
1.30463030e+03
1.02532135e+03
0.00000000e+00
0.00000000e+00
7.32403639e+02
8.67001267e+02
9.25702058e+02
1.34613434e+03
8.63794952e+02
7.48262568e+02
7.78956322e+02
3.46464662e+02
4.03738224e+02
4.71912798e+02
6.33405707e+02
7.16074894e+02
9.79025993e+02
1.00996168e+03
1.12777985e+03
1.28969861e+03
1.18146045e+03
1.15634585e+03
8.34106863e+02
0.00000000e+00
0.00000000e+00
5.86291988e+02
1.29444276e+03
7.49627955e+02
1.24253005e+03
9.83453356e+02
8.33146308e+02
6.98001153e+02
1.23325444e+03
1.13138695e+03
1.21154182e+03
1.20881496e+03
1.18310213e+03
8.82137408e+02
9.66428355e+02
1.07343679e+03
1.24097834e+03
1.14421810e+03
1.28755885e+03
1.03749722e+03
0.00000000e+00
0.00000000e+00
5.14203411e+02
8.09360802e+02
6.27305023e+02
9.32952191e+02
9.28121445e+02
7.15527007e+02
0.00000000e+00
0.00000000e+00
0.00000000e+00
0.00000000e+00
3.55040382e+02
0.00000000e+00
0.00000000e+00
7.30927211e+02
9.57626518e+02
1.14574594e+03
1.04258135e+03
1.26687358e+03
1.06095622e+03
0.00000000e+00
0.00000000e+00
0.00000000e+00
0.00000000e+00
9.64590489e+02
1.14889467e+03
9.51418215e+02
1.02845920e+03
0.00000000e+00
0.00000000e+00
8.88139197e+02
0.00000000e+00
0.00000000e+00
4.22756328e+02
0.00000000e+00
0.00000000e+00
0.00000000e+00
1.12291078e+03
1.07747754e+03
1.17583225e+03
1.30581592e+03
1.03213354e+03
8.05667906e+02
0.00000000e+00
4.20067698e+02
0.00000000e+00
0.00000000e+00
0.00000000e+00