# vtk DataFile Version 3.0
MPS 3D Simulation Step 8200
ASCII
DATASET UNSTRUCTURED_GRID
POINTS 20213 double
-1.15687038e-03 3.27808813e-04 -7.87475709e-04
-1.04539255e-03 1.54407981e-04 -8.22722746e-04
-9.38275387e-04 2.86385740e-04 -1.03255621e-03
-8.92541631e-04 3.27790418e-04 -1.08592038e-03
-8.61136056e-04 1.78564940e-04 -1.04178729e-03
-8.37512061e-04 3.53300759e-04 -1.13605255e-03
-6.18391992e-04 2.22401569e-04 -1.22930462e-03
-4.88716983e-04 2.48383308e-04 -1.29960261e-03
-4.28640298e-04 3.44023461e-04 -1.23874865e-03
-3.98479647e-04 8.30344551e-04 -1.12775104e-03
-2.09985576e-04 9.09099419e-04 -1.12601821e-03
-3.40446294e-04 8.88880641e-04 -1.20943168e-03
-8.66340526e-05 6.64463001e-04 -1.12076401e-03
-5.11928146e-05 2.01782678e-04 -1.37201883e-03
3.13566090e-05 2.27099623e-04 -1.38565673e-03
5.20630666e-04 1.29841373e-04 -1.23573129e-03
1.90899663e-04 7.18841947e-04 -7.83328491e-04
5.16851871e-04 2.07813790e-04 -1.28569175e-03
5.46519739e-04 7.64759581e-04 -1.07972036e-03
7.68585692e-04 8.55909682e-04 -9.21236240e-04
1.09217113e-03 6.27433971e-04 -7.52193261e-04
-1.09130617e-03 2.25247538e-04 -8.24817083e-04
-1.04113722e-03 2.15042596e-04 -8.88106231e-04
-1.02144629e-03 3.54080700e-04 -9.79186801e-04
-9.15625595e-04 4.09186433e-04 -1.08243674e-03
-8.70167726e-04 5.29118414e-04 -1.13128525e-03
-9.84821376e-04 4.55206014e-04 -1.02651677e-03
-7.83802372e-04 3.95693942e-04 -1.17901380e-03
-5.81087033e-04 3.59979256e-04 -1.28929299e-03
-4.02812992e-04 2.16441554e-04 -1.31834404e-03
-3.92986216e-04 1.22503324e-04 -1.25512055e-03
-1.18378875e-04 2.51714439e-04 -1.38790936e-03
1.16900369e-04 1.95744131e-04 -1.37378772e-03
1.80972439e-04 4.03073009e-04 -1.42692905e-03
2.52088955e-04 3.45874131e-04 -1.40913253e-03
2.74084952e-04 2.71503074e-04 -1.38453782e-03
4.53689551e-04 1.57305386e-04 -1.28722409e-03
4.26477341e-04 2.98544010e-04 -1.35522845e-03
4.22038265e-04 7.20592051e-04 -1.25212294e-03
4.35947119e-04 2.22176598e-04 -1.32600536e-03
5.89016938e-04 1.96315642e-04 -1.24096724e-03
8.04579955e-04 1.25874602e-04 -1.04299133e-03
-1.10409992e-03 3.02843594e-04 -8.50578116e-04
-1.07430998e-03 3.66630778e-04 -9.12981547e-04
-1.07036558e-03 5.78163783e-04 -9.39148467e-04
-8.15754325e-04 2.71917615e-04 -1.12319049e-03
-9.65180678e-04 3.70640828e-04 -1.03415494e-03
-8.57605955e-04 4.38286080e-04 -1.13319610e-03
-5.66232307e-04 2.76114690e-04 -1.27449020e-03
-6.92846816e-04 2.59872921e-04 -1.20095281e-03
-4.31810876e-04 3.73448137e-04 -1.35788696e-03
-3.28882796e-04 2.53294435e-04 -1.35202445e-03
-1.33163381e-04 4.06212805e-04 -1.42746716e-03
-3.68105879e-05 2.78218287e-04 -1.40374250e-03
1.13406352e-04 4.57282776e-04 -1.43874210e-03
3.33967060e-04 3.67930587e-04 -1.39814767e-03
2.79975926e-04 1.98939140e-04 -1.35253023e-03
4.18440231e-04 4.60661031e-04 -1.38293678e-03
4.90591533e-04 3.64917220e-04 -1.34638075e-03
4.12184515e-04 3.79721969e-04 -1.37797700e-03
6.49610711e-04 2.65597493e-04 -1.23391755e-03
7.45553732e-04 1.79261127e-04 -1.13043101e-03
7.12080046e-04 1.16665014e-04 -1.06164604e-03
-1.17694946e-03 4.05754622e-04 -7.77931367e-04
-1.09386120e-03 4.49796833e-04 -9.02158747e-04
-1.05313868e-03 5.05342457e-04 -9.59740744e-04
-9.26050893e-04 4.91875503e-04 -1.08202332e-03
-7.99420609e-04 4.83543394e-04 -1.17739821e-03
-7.13785529e-04 3.49330621e-04 -1.21624441e-03
-6.39647958e-04 3.09386984e-04 -1.24650005e-03
-3.56622168e-04 3.27702494e-04 -1.37229394e-03
-2.85743835e-04 3.49984496e-04 -1.39573134e-03
-3.41463662e-04 1.76086073e-04 -1.31244482e-03
-6.13162013e-05 4.49849505e-04 -1.43818779e-03
-1.25819274e-04 1.76514106e-04 -1.34750685e-03
-2.61725667e-05 3.75991916e-04 -1.42881040e-03
3.51408486e-05 3.16209065e-04 -1.41656783e-03
2.62083529e-04 4.29700585e-04 -1.42112240e-03
3.53075215e-04 2.95095746e-04 -1.37593143e-03
4.28257567e-04 5.43901555e-04 -1.38073194e-03
7.12346191e-04 3.26830564e-04 -1.21806050e-03
7.28911223e-04 2.49996674e-04 -1.18085822e-03
7.99690141e-04 2.51248326e-04 -1.13415157e-03
8.74118257e-04 2.58227385e-04 -1.08145047e-03
-1.19462645e-03 4.88966591e-04 -7.58152957e-04
-1.01833809e-03 6.14712325e-04 -9.96366318e-04
-1.03843190e-03 4.29682346e-04 -9.70478231e-04
-8.12743758e-04 5.67244644e-04 -1.17478764e-03
-6.62812771e-04 4.79806509e-04 -1.26274627e-03
-7.27449864e-04 4.37801682e-04 -1.22017421e-03
-3.62633604e-04 4.15409491e-04 -1.38858881e-03
-2.85096106e-04 4.35397433e-04 -1.40942393e-03
-2.12696750e-04 3.78312077e-04 -1.41469067e-03
-1.33964038e-04 4.97924307e-04 -1.43661942e-03
-5.94209751e-05 5.39896142e-04 -1.44159194e-03
-1.76090169e-04 3.08396240e-04 -1.40074382e-03
1.19950289e-05 4.92788945e-04 -1.44206689e-03
2.33666593e-04 5.88902550e-04 -1.43090270e-03
4.14445378e-05 4.15291557e-04 -1.43552998e-03
3.41650692e-04 4.53497051e-04 -1.40612876e-03
3.50972699e-04 5.34727129e-04 -1.40563485e-03
5.74082190e-04 2.72187976e-04 -1.28075657e-03
7.84344875e-04 3.23752014e-04 -1.17182095e-03
8.55425463e-04 3.26161295e-04 -1.12322054e-03
8.39003826e-04 4.04285547e-04 -1.15368299e-03
-1.18878029e-03 6.21034827e-04 -7.71255532e-04
-1.11193506e-03 5.29624008e-04 -8.82367121e-04
-9.62968940e-04 6.52105785e-04 -1.05014781e-03
-9.98797473e-04 5.36353680e-04 -1.01649163e-03
-7.38056683e-04 5.23664912e-04 -1.22194630e-03
-5.89121480e-04 4.45865956e-04 -1.29801978e-03
-5.13759351e-04 4.07492146e-04 -1.32943799e-03
-4.53495360e-04 4.56183092e-04 -1.36224112e-03
-2.07443507e-04 4.61263757e-04 -1.42588525e-03
-3.07986775e-04 5.13234354e-04 -1.41135114e-03
-2.26971055e-04 5.41550942e-04 -1.42762443e-03
-9.58282426e-05 3.35111025e-04 -1.41740446e-03
1.88155034e-04 4.91639292e-04 -1.43446990e-03
2.67585359e-04 5.14784978e-04 -1.42563291e-03
1.06934341e-04 2.72872802e-04 -1.40259447e-03
2.16237071e-04 7.48052893e-04 -1.41019563e-03
3.09776503e-04 6.07152548e-04 -1.41296989e-03
4.92730838e-04 4.49003205e-04 -1.35549248e-03
6.41560656e-04 3.43763293e-04 -1.26330609e-03
7.67738393e-04 4.00039029e-04 -1.19933083e-03
9.40825074e-04 4.58851747e-04 -1.08138516e-03
-1.16042178e-03 5.55575612e-04 -8.11504094e-04
-1.14659307e-03 4.70871572e-04 -8.28983772e-04
-1.01683144e-03 6.97240707e-04 -9.91398470e-04
-8.92933303e-04 6.07483833e-04 -1.11416225e-03
-7.55525126e-04 6.04692343e-04 -1.21220271e-03
-6.03032807e-04 5.32380701e-04 -1.29759917e-03
-5.26865102e-04 4.95903871e-04 -1.33304440e-03
-3.84544407e-04 4.92610133e-04 -1.39066800e-03
-4.56957238e-04 5.41272034e-04 -1.36502902e-03
-3.78285219e-04 5.73277423e-04 -1.39459265e-03
-1.49871716e-04 5.77041177e-04 -1.43767112e-03
1.58486337e-05 5.84797565e-04 -1.44506288e-03
8.38766454e-05 5.35358997e-04 -1.44540697e-03
1.57587609e-04 5.66998360e-04 -1.44304951e-03
1.77923015e-04 6.55717253e-04 -1.43317923e-03
5.03614631e-04 5.29798114e-04 -1.35028112e-03
4.72436953e-04 6.16015943e-04 -1.36012863e-03
5.68577741e-04 3.48795014e-04 -1.30639387e-03
5.61162104e-04 4.26646092e-04 -1.32237491e-03
8.80225232e-04 4.73758759e-04 -1.13608374e-03
8.42524029e-04 5.58143394e-04 -1.17195410e-03
-1.18799088e-03 7.10633591e-04 -7.56343435e-04
-1.11860288e-03 6.14666806e-04 -8.70570669e-04
-1.06944121e-03 6.60152281e-04 -9.31602830e-04
-9.47148199e-04 5.72671442e-04 -1.06814609e-03
-6.77089322e-04 5.64725404e-04 -1.25877642e-03
-5.43507631e-04 5.80838639e-04 -1.32937456e-03
-5.56159756e-04 6.64315391e-04 -1.31744671e-03
-4.78764428e-04 6.19616197e-04 -1.35847889e-03
-4.09155401e-04 6.47944534e-04 -1.38268571e-03
-2.91638660e-04 5.96319474e-04 -1.41654418e-03
-2.12596597e-04 6.33396842e-04 -1.42655803e-03
-7.96346364e-05 6.19354158e-04 -1.44049393e-03
-9.49640306e-06 6.62391749e-04 -1.44113973e-03
9.36746615e-05 6.26034847e-04 -1.44134474e-03
1.35721198e-04 7.23428716e-04 -1.42870431e-03
3.88408213e-04 6.22239799e-04 -1.38928153e-03
3.40810327e-04 6.91730642e-04 -1.39342996e-03
5.50176072e-04 5.98237733e-04 -1.32939557e-03
6.32415367e-04 4.30807671e-04 -1.28432648e-03
8.03466475e-04 4.82609564e-04 -1.18836480e-03
8.08833493e-04 6.49767922e-04 -1.19404426e-03
-1.15012247e-03 6.71548356e-04 -8.22490367e-04
-1.10317969e-03 7.14050914e-04 -8.78317958e-04
-1.05306706e-03 7.52119690e-04 -9.37465949e-04
-7.73070920e-04 6.87785388e-04 -1.19386275e-03
-6.98349660e-04 6.50105996e-04 -1.24411226e-03
-6.20109144e-04 6.18660204e-04 -1.28754104e-03
-5.66745778e-04 7.43053026e-04 -1.29952970e-03
-4.87509931e-04 7.01715723e-04 -1.34553323e-03
-4.16191249e-04 7.27643751e-04 -1.36883005e-03
-3.34776592e-04 6.63244320e-04 -1.40214086e-03
-2.65943732e-04 6.97258006e-04 -1.41216139e-03
-1.41248352e-04 6.76998375e-04 -1.43080012e-03
-7.07349171e-05 7.19556288e-04 -1.43210507e-03
1.42514268e-06 7.61340608e-04 -1.42794076e-03
5.94536289e-05 7.00224895e-04 -1.43636305e-03
2.95026308e-04 7.61454523e-04 -1.38964654e-03
3.22361662e-04 8.39951858e-04 -1.36247439e-03
4.26251789e-04 6.98010142e-04 -1.36600727e-03
5.78179943e-04 5.11026972e-04 -1.31549159e-03
6.98738542e-04 4.12487394e-04 -1.24468842e-03
7.76263600e-04 5.69584582e-04 -1.21401045e-03
-1.13800843e-03 7.58644286e-04 -8.14436713e-04
-1.03489185e-03 8.35147964e-04 -9.24110259e-04
-9.59821310e-04 7.35241672e-04 -1.04268656e-03
-8.34546879e-04 6.47663263e-04 -1.15560501e-03
-7.71885796e-04 7.74384134e-04 -1.17910186e-03
-6.36602528e-04 7.01680331e-04 -1.27125919e-03
-6.38791304e-04 7.82903308e-04 -1.25371659e-03
-4.93456223e-04 7.80507190e-04 -1.32394141e-03
-4.15658143e-04 8.07482910e-04 -1.34776482e-03
-3.44367694e-04 7.49566520e-04 -1.38549151e-03
-2.68943566e-04 7.83099238e-04 -1.39446039e-03
-1.95774428e-04 7.37949710e-04 -1.41751259e-03
-1.22790300e-04 7.80440708e-04 -1.41709501e-03
-5.14345874e-05 8.21066175e-04 -1.41335027e-03
8.08500505e-05 7.90324206e-04 -1.41735618e-03
2.39762212e-04 8.34318550e-04 -1.38255740e-03
4.09151209e-04 8.44215017e-04 -1.33800945e-03
3.78303531e-04 7.69791930e-04 -1.36572332e-03
6.24794886e-04 5.84855327e-04 -1.29580143e-03
7.33169932e-04 4.89844460e-04 -1.23188965e-03
7.69531859e-04 7.26903452e-04 -1.21118864e-03
-1.08818426e-03 8.05691256e-04 -8.69756452e-04
-1.02219000e-03 9.12236661e-04 -8.93565184e-04
[...]
POINT_DATA 20213
SCALARS pressure double 1
LOOKUP_TABLE default
7.02872763e+02
0.00000000e+00
0.00000000e+00
0.00000000e+00
4.57375587e+02
0.00000000e+00
0.00000000e+00
6.32951355e+02
6.61761101e+02
8.53065476e+02
8.10293973e+02
6.38917012e+02
9.22043579e+02
0.00000000e+00
0.00000000e+00
6.01501549e+02
1.68675448e+03
7.88002328e+02
9.06032165e+02
7.77037188e+02
7.19155744e+02
0.00000000e+00
4.96344196e+02
0.00000000e+00
6.30083424e+02
0.00000000e+00
0.00000000e+00
9.83509159e+02
6.20100580e+02
4.92420037e+02
0.00000000e+00
6.85260570e+02
8.77950068e+02
0.00000000e+00
0.00000000e+00
0.00000000e+00
0.00000000e+00
1.04612364e+03
6.78863886e+02
1.00886127e+03
0.00000000e+00
0.00000000e+00
0.00000000e+00
6.42820440e+02
1.06076487e+03
6.45608802e+02
0.00000000e+00
0.00000000e+00
0.00000000e+00
8.59824053e+02
0.00000000e+00
0.00000000e+00
6.41501371e+02
0.00000000e+00
0.00000000e+00
0.00000000e+00
9.53696650e+02
7.28198698e+02
8.70352319e+02
0.00000000e+00
7.95897822e+02
0.00000000e+00
4.58785980e+02
0.00000000e+00
0.00000000e+00
0.00000000e+00
0.00000000e+00
9.24716360e+02
9.18492124e+02
7.28711897e+02
0.00000000e+00
0.00000000e+00
5.31643550e+02
0.00000000e+00
0.00000000e+00
6.92465756e+02
0.00000000e+00
0.00000000e+00
9.77088473e+02
5.92656668e+02
7.12645126e+02
6.77596623e+02
0.00000000e+00
0.00000000e+00
1.27535104e+03
1.22095688e+03
0.00000000e+00
9.96283367e+02
0.00000000e+00
9.75289184e+02
0.00000000e+00
0.00000000e+00
0.00000000e+00
0.00000000e+00
6.74883283e+02
6.06240525e+02
7.14065059e+02
0.00000000e+00
0.00000000e+00
0.00000000e+00
0.00000000e+00
0.00000000e+00
0.00000000e+00
0.00000000e+00
0.00000000e+00
1.42176095e+03
1.06273101e+03
1.07791730e+03
0.00000000e+00
9.37891305e+02
0.00000000e+00
0.00000000e+00
0.00000000e+00
0.00000000e+00
0.00000000e+00
0.00000000e+00
7.17791904e+02
0.00000000e+00
0.00000000e+00
9.29981689e+02
0.00000000e+00
6.08695197e+02
0.00000000e+00
8.56664790e+02
5.52368453e+02
7.19925949e+02
1.30991995e+03
1.01982828e+03
1.39721890e+03
7.69611871e+02
1.02369614e+03
0.00000000e+00
0.00000000e+00
0.00000000e+00
0.00000000e+00
0.00000000e+00
6.88075720e+02
0.00000000e+00
0.00000000e+00
0.00000000e+00
0.00000000e+00
6.61757663e+02
0.00000000e+00
8.51775278e+02
0.00000000e+00
0.00000000e+00
0.00000000e+00
1.61667007e+03
0.00000000e+00
1.44731328e+03
0.00000000e+00
0.00000000e+00
0.00000000e+00
0.00000000e+00
0.00000000e+00
0.00000000e+00
0.00000000e+00
0.00000000e+00
8.06941997e+02
0.00000000e+00
0.00000000e+00
0.00000000e+00
0.00000000e+00
7.15546371e+02
0.00000000e+00
6.38119993e+02
0.00000000e+00
0.00000000e+00
1.44780678e+03
1.39227855e+03
1.39023402e+03
9.88611646e+02
7.71833536e+02
0.00000000e+00
0.00000000e+00
0.00000000e+00
0.00000000e+00
0.00000000e+00
6.74564322e+02
8.18491094e+02
7.32529382e+02
0.00000000e+00
0.00000000e+00
6.30249550e+02
6.13539889e+02
0.00000000e+00
0.00000000e+00
0.00000000e+00
0.00000000e+00
1.40771881e+03
1.18210742e+03
1.09805513e+03
9.54322854e+02
9.54000438e+02
0.00000000e+00
7.34782513e+02
5.54686077e+02
0.00000000e+00
5.86454202e+02
7.44116575e+02
8.07079162e+02
8.90522414e+02
7.99682848e+02
0.00000000e+00
0.00000000e+00
0.00000000e+00
5.85331883e+02
0.00000000e+00
0.00000000e+00
0.00000000e+00
0.00000000e+00
0.00000000e+00
8.62183310e+02
0.00000000e+00
8.76790230e+02
9.23700879e+02
0.00000000e+00
0.00000000e+00
0.00000000e+00
6.71889069e+02
8.61772878e+02
0.00000000e+00
9.05097413e+02
6.30296984e+02
0.00000000e+00
0.00000000e+00
0.00000000e+00
0.00000000e+00
0.00000000e+00
0.00000000e+00
0.00000000e+00
1.35517371e+03
1.19063291e+03
0.00000000e+00
8.55481049e+02
0.00000000e+00
8.54770019e+02
8.56424810e+02
5.62065464e+02
0.00000000e+00
0.00000000e+00
0.00000000e+00
7.98784490e+02
0.00000000e+00
0.00000000e+00
0.00000000e+00
0.00000000e+00
0.00000000e+00
0.00000000e+00
8.98027687e+02
0.00000000e+00
7.59604172e+02
9.75448079e+02
0.00000000e+00
6.20349009e+02
0.00000000e+00
0.00000000e+00
0.00000000e+00
0.00000000e+00
0.00000000e+00
0.00000000e+00
0.00000000e+00
0.00000000e+00
0.00000000e+00
0.00000000e+00
0.00000000e+00
0.00000000e+00
8.21890227e+02
0.00000000e+00
0.00000000e+00
9.37456493e+02
8.52100302e+02
0.00000000e+00
0.00000000e+00
0.00000000e+00
0.00000000e+00
0.00000000e+00
0.00000000e+00
0.00000000e+00
0.00000000e+00
0.00000000e+00
0.00000000e+00
0.00000000e+00
0.00000000e+00
0.00000000e+00
0.00000000e+00
0.00000000e+00
8.23704196e+02
0.00000000e+00
1.01816239e+03
9.80632220e+02
9.04373551e+02
7.29163043e+02
7.04396416e+02
0.00000000e+00
0.00000000e+00
6.77410000e+02
6.43899068e+02
0.00000000e+00
6.65051451e+02
6.29535459e+02
7.75673616e+02
0.00000000e+00
0.00000000e+00
0.00000000e+00
0.00000000e+00
0.00000000e+00
0.00000000e+00
0.00000000e+00
9.22588615e+02
1.09511112e+03
1.06552784e+03
1.03118086e+03
0.00000000e+00
0.00000000e+00
0.00000000e+00
0.00000000e+00
5.72200344e+02
0.00000000e+00
0.00000000e+00
7.48103400e+02
0.00000000e+00
7.76129788e+02
7.75796722e+02
6.04392891e+02
0.00000000e+00
0.00000000e+00
0.00000000e+00
0.00000000e+00
9.66986148e+02
0.00000000e+00
1.02792701e+03
9.56611833e+02
7.36846389e+02
0.00000000e+00
0.00000000e+00
0.00000000e+00
0.00000000e+00
0.00000000e+00
6.98252891e+02
0.00000000e+00
7.24785516e+02
0.00000000e+00
9.00256503e+02
8.91813583e+02
0.00000000e+00
0.00000000e+00
0.00000000e+00
6.37549465e+02
0.00000000e+00
8.56426917e+02
1.09677558e+03
1.01740485e+03
9.16965012e+02
0.00000000e+00
0.00000000e+00
0.00000000e+00
0.00000000e+00
0.00000000e+00
0.00000000e+00
0.00000000e+00
6.65785668e+02
8.59949408e+02
0.00000000e+00
0.00000000e+00
8.20017736e+02
8.26330418e+02
7.03533891e+02
0.00000000e+00
6.63247494e+02
7.58145282e+02
1.02029410e+03
0.00000000e+00
9.64239332e+02
0.00000000e+00
0.00000000e+00
0.00000000e+00
0.00000000e+00
0.00000000e+00
0.00000000e+00
0.00000000e+00
0.00000000e+00
0.00000000e+00
8.71571140e+02
0.00000000e+00
8.36736223e+02
7.24909236e+02
7.62943119e+02
7.76841477e+02
6.58112224e+02
0.00000000e+00
0.00000000e+00
8.43003857e+02
0.00000000e+00
6.88718377e+02
0.00000000e+00
0.00000000e+00
0.00000000e+00
0.00000000e+00
0.00000000e+00
0.00000000e+00
0.00000000e+00
0.00000000e+00
6.78007911e+02
8.05193658e+02
0.00000000e+00
8.00892934e+02
6.79148625e+02
0.00000000e+00
0.00000000e+00
0.00000000e+00
5.55167960e+02
0.00000000e+00
0.00000000e+00
0.00000000e+00
6.24042463e+02
0.00000000e+00
0.00000000e+00
0.00000000e+00
0.00000000e+00
0.00000000e+00
0.00000000e+00
0.00000000e+00
0.00000000e+00
0.00000000e+00
8.89647074e+02
0.00000000e+00
0.00000000e+00
0.00000000e+00
0.00000000e+00
0.00000000e+00
0.00000000e+00
5.67532923e+02
0.00000000e+00
0.00000000e+00
5.23525411e+02
0.00000000e+00
0.00000000e+00
0.00000000e+00
0.00000000e+00
0.00000000e+00
5.45500972e+02
0.00000000e+00
1.19972029e+03
0.00000000e+00
5.35377876e+02
0.00000000e+00
1.32096038e+03
9.59571642e+02
0.00000000e+00
9.79183594e+02
1.13258266e+03
1.41058896e+03
8.47003933e+02
1.09606267e+03
7.98657625e+02
1.40609332e+03
9.47751415e+02
8.08205807e+02
9.20747768e+02
0.00000000e+00
0.00000000e+00
8.70245488e+02
1.14880412e+03
5.96586791e+02
1.59417490e+03
7.77940103e+02
1.14307394e+03
9.81079100e+02
9.80747862e+02
9.13876912e+02
1.16370369e+03
2.10979152e+03
2.08846695e+03
9.55339222e+02
2.16943219e+03
1.78186478e+03
1.29280697e+03
1.18465995e+03
1.11364227e+03
1.47277607e+03
1.14524269e+03
6.13549811e+02
0.00000000e+00
1.06321531e+03
9.47906126e+02
1.23697965e+03
7.50565050e+02
7.74548136e+02
1.62472289e+03
0.00000000e+00
0.00000000e+00
5.73248105e+02
0.00000000e+00
5.84570805e+02
0.00000000e+00
9.53214537e+02
1.74468687e+03
9.54766940e+02
1.02217519e+03
6.65755199e+02
1.26152447e+03
1.16151078e+03
0.00000000e+00
1.05468094e+03
6.99868011e+02
2.08229868e+03
1.07540246e+03
9.65029848e+02
1.18974100e+03
8.42884312e+02
9.59073871e+02
5.91113962e+02
7.18099235e+02
8.85985536e+02
1.27420323e+03
1.58888360e+03
1.00473848e+03
9.37144287e+02
9.61204826e+02
1.51875410e+03
1.04500712e+03
9.73816132e+02
1.74194430e+03
9.16207455e+02
8.18512958e+02
8.87721270e+02
1.55675184e+03
1.47103602e+03
1.96645166e+03
1.49159142e+03
1.52350643e+03
8.08619804e+02
6.45066130e+02
1.46253978e+03
1.64251447e+03
1.78613970e+03
7.74734465e+02
7.36152726e+02
7.49012195e+02
2.05011592e+03
6.61810932e+02
1.03182651e+03
1.29396591e+03
8.37679794e+02
9.73230540e+02
9.55673974e+02
1.38656428e+03
5.67991879e+02
9.20955740e+02
1.73193491e+03
8.47182072e+02
2.00863508e+03
1.00821514e+03
9.02610857e+02
6.80813618e+02
1.98159879e+03
7.63413645e+02
1.38659185e+03
1.24454502e+03
8.49841131e+02
0.00000000e+00
9.06496797e+02
7.96474556e+02
5.23594692e+02
1.53717588e+03
8.02930012e+02
1.08866615e+03
1.07778476e+03
1.04509707e+03
1.29950748e+03
1.23842329e+03
7.28072327e+02
1.47148056e+03
1.01447843e+03
9.43885102e+02
1.58748584e+03
8.16310862e+02
1.29372656e+03
2.05604265e+03
9.71156560e+02
1.02082716e+03
1.42844680e+03
1.20036835e+03
5.59114023e+02
1.05160715e+03
6.20762528e+02
0.00000000e+00
1.33131230e+03
5.99967098e+02
1.14018123e+03
1.07028214e+03
1.10212421e+03
1.34270009e+03
1.14856847e+03
1.82098910e+03
1.30018419e+03
1.50414745e+03
1.09008651e+03
9.47466519e+02
2.02086001e+03
1.01878070e+03
1.52676294e+03
1.83698757e+03
4.91081313e+02
5.78611114e+02
0.00000000e+00
5.68463872e+02
0.00000000e+00
1.22459458e+03
1.76582960e+03
0.00000000e+00
1.38755695e+03
8.86326069e+02
1.18178557e+03
1.04386383e+03
1.41149118e+03
1.86444862e+03
7.08415027e+02
1.46825450e+03
2.08019581e+03
7.67156061e+02
1.41048533e+03
8.22098800e+02
8.14615864e+02
2.19656878e+03
2.11579986e+03
0.00000000e+00
9.62980723e+02
0.00000000e+00
1.43191682e+03
1.84522691e+03
0.00000000e+00
1.02866123e+03
9.96493923e+02
8.92565228e+02
8.75382272e+02
8.74102576e+02
1.53271730e+03
9.88890562e+02
9.99742532e+02
9.29696543e+02
2.17162844e+03
9.64033472e+02
8.17338145e+02
9.29933610e+02
7.99940159e+02
8.80908262e+02
0.00000000e+00
7.15916177e+02
0.00000000e+00
1.55769739e+03
1.40773663e+03
9.53996925e+02
9.65180660e+02
9.08949950e+02
1.03913451e+03
9.80191237e+02
1.36133972e+03
1.23854147e+03
1.43617624e+03
9.70722102e+02
1.73184351e+03
1.05872410e+03
1.72704432e+03
7.02195578e+02
6.54005376e+02
1.63106847e+03
2.05470184e+03
0.00000000e+00
1.29873149e+03
0.00000000e+00
1.14915096e+03
9.34186223e+02
0.00000000e+00
6.21573064e+02
7.17041557e+02
9.28260890e+02
1.04305683e+03
7.97516342e+02
2.05313975e+03
1.27816207e+03
1.82928781e+03
1.11458427e+03
1.36100940e+03
7.89983266e+02
1.45298166e+03
7.01231559e+02
5.75664025e+02
6.43735171e+02
7.86088971e+02
1.09629121e+03
0.00000000e+00
0.00000000e+00
1.51792190e+03
0.00000000e+00
1.36856751e+03
1.26278936e+03
8.75015536e+02
1.10612953e+03
1.36220241e+03
1.37467737e+03
1.00467664e+03
1.24403005e+03
2.01817305e+03
1.04322342e+03
2.04094244e+03
9.28224040e+02
9.86207880e+02
8.61605013e+02
2.18317712e+03
0.00000000e+00
1.90157920e+03
0.00000000e+00
0.00000000e+00
6.50054794e+02
0.00000000e+00
1.12280068e+03
7.44923759e+02
9.12671324e+02
1.15997918e+03
1.11630128e+03
1.55478930e+03
9.06379014e+02
9.89856163e+02
7.81970789e+02
9.62107657e+02
7.82939527e+02
7.39493556e+02
9.57589656e+02
1.11513020e+03
1.25537489e+03
6.20066122e+02
5.18049944e+02
4.19816555e+02
0.00000000e+00
6.55216598e+02
6.90850170e+02
1.04745633e+03
1.16187077e+03
1.04095745e+03
1.46262113e+03
2.01782151e+03
1.57020127e+03
8.49510145e+02
1.93250352e+03
7.87719681e+02
7.60972244e+02
7.42298483e+02
1.07591894e+03
1.25476331e+03
1.80477717e+03
7.05527946e+02
1.06760320e+03
6.53151599e+02
0.00000000e+00
0.00000000e+00
9.58575098e+02
1.17759785e+03
7.79699836e+02
9.16491970e+02
7.77075668e+02
1.08417278e+03
1.03207898e+03
1.04732556e+03
1.04827200e+03
1.17152631e+03
1.71229159e+03
9.93300112e+02
7.41584260e+02
7.96327493e+02
9.92050175e+02
1.54438332e+03
1.11425368e+03
1.30893750e+03
7.96775256e+02
0.00000000e+00
0.00000000e+00
1.17408829e+03
1.51126446e+03
7.76666813e+02
1.87759216e+03
9.28725504e+02
1.24406922e+03
9.69469324e+02
1.64362035e+03
1.00003328e+03
9.42327745e+02
8.79858403e+02
1.25723945e+03
1.15689081e+03
1.94988967e+03
9.38833484e+02
1.90731113e+03
1.05498446e+03
1.69269684e+03
8.67980388e+02
8.43386176e+02
0.00000000e+00
8.37992896e+02
7.45841715e+02
1.28215753e+03
7.82814129e+02
1.57217199e+03
1.23225421e+03
1.17817510e+03
1.44963813e+03
1.01240359e+03
1.28424427e+03
1.09792182e+03
1.72513565e+03
1.66875803e+03
1.04124821e+03
7.60630512e+02
1.04951179e+03
1.31041384e+03
7.79952415e+02
7.18537324e+02
0.00000000e+00
0.00000000e+00
9.68902138e+02
7.29837577e+02
9.34591559e+02
1.67929088e+03
1.30880021e+03
8.80382001e+02
0.00000000e+00
7.33851887e+02
0.00000000e+00
7.09421170e+02
0.00000000e+00
6.23944259e+02
6.14178072e+02
7.49274741e+02
1.14566112e+03
1.00950364e+03
6.00994054e+02
6.19206022e+02
1.36513078e+03
0.00000000e+00
7.02721185e+02
1.88576886e+03
4.99125329e+02
1.22991113e+03
8.26927235e+02
1.35918268e+03
1.18691015e+03
1.10116994e+03
1.31926950e+03
1.22837145e+03
1.65710449e+03
1.24510170e+03
1.93407489e+03
1.25190439e+03
1.00891048e+03
8.52229748e+02
6.89598686e+02
9.47420718e+02
1.21293369e+03
1.96517278e+03
0.00000000e+00
7.26090728e+02
0.00000000e+00
0.00000000e+00
0.00000000e+00
0.00000000e+00
8.18912651e+02
8.57022502e+02
0.00000000e+00
0.00000000e+00
1.03072361e+03
0.00000000e+00
0.00000000e+00
0.00000000e+00
0.00000000e+00
6.66814812e+02
0.00000000e+00
0.00000000e+00
5.24651593e+02
0.00000000e+00
0.00000000e+00
6.54115854e+02
6.47746642e+02
5.62042384e+02
0.00000000e+00
0.00000000e+00
7.66778472e+02
0.00000000e+00
6.87629906e+02
0.00000000e+00
0.00000000e+00
8.48540462e+02
8.34791766e+02
9.55120723e+02
8.89873296e+02
9.64124417e+02
1.08860042e+03
6.72671082e+02
7.75311830e+02
8.14628097e+02
0.00000000e+00
0.00000000e+00
0.00000000e+00
0.00000000e+00
1.24461941e+03
1.09188948e+03
9.40304154e+02
1.07417110e+03
5.99755747e+02
9.85800261e+02
7.75845130e+02
1.74984469e+03
0.00000000e+00
9.17075280e+02
9.21090981e+02
8.51166471e+02
1.10380682e+03
1.02121369e+03
1.55724388e+03
1.91828307e+03
1.78241072e+03
1.23701967e+03
9.95371944e+02
0.00000000e+00
0.00000000e+00
1.04565342e+03
1.59408226e+03
2.04353203e+03
1.50064931e+03
1.81638992e+03
2.10390029e+03
9.60107450e+02
8.81917258e+02
1.41285452e+03
6.15179246e+02
9.55084713e+02
9.92042135e+02
1.11477077e+03
1.17104576e+03
2.00842190e+03
9.07647163e+02
7.47057270e+02
8.76457414e+02
1.39063313e+03
0.00000000e+00
8.80241813e+02
6.60265805e+02
1.74335346e+03
8.84044248e+02
1.68419514e+03
1.03282953e+03
1.45208058e+03
1.31387939e+03
9.82795186e+02
8.03659694e+02
8.08569484e+02
1.18217574e+03
1.31912525e+03
6.29796828e+02
1.44784570e+03
9.28463143e+02
1.04145228e+03
1.49829060e+03
9.19772768e+02
1.45562041e+03
0.00000000e+00
0.00000000e+00
1.19141514e+03
8.10127238e+02
1.15232925e+03
1.38848991e+03
1.72752183e+03
1.09029420e+03
1.22682998e+03
5.39667847e+02
1.28441986e+03
1.05476166e+03
8.42819832e+02
5.55018219e+02
1.39260394e+03
1.04060189e+03
9.32500389e+02
1.47404912e+03
9.29504814e+02
1.99414125e+03
1.36671722e+03
6.96198259e+02
0.00000000e+00
1.01331305e+03
7.50088604e+02
1.05828653e+03
2.07710248e+03
1.25674034e+03
9.66225922e+02
1.66450958e+03
7.24728595e+02
1.47931952e+03
4.45780419e+02
1.54488531e+03
7.01947738e+02
8.84228704e+02
1.65851539e+03
1.03524899e+03
1.34792414e+03
9.09103992e+02
1.11959335e+03
8.74909110e+02
9.02026058e+02
0.00000000e+00
1.05136378e+03
1.27944911e+03
1.21080411e+03
9.84412799e+02
1.24890154e+03
1.08626715e+03
1.18204774e+03
8.41337402e+02
2.03487050e+03
1.02559240e+03
5.90820967e+02
1.01362691e+03
7.75628244e+02
1.70191016e+03
1.52402453e+03
1.59031703e+03
2.13389743e+03
9.28415976e+02
9.18848927e+02
0.00000000e+00
9.23951063e+02
9.14742763e+02
2.04511643e+03
1.74900294e+03
1.56837884e+03
1.40397051e+03
8.88912833e+02
4.67192202e+02
9.30168837e+02
1.34282029e+03
2.10117815e+03
1.07987700e+03
1.47310800e+03
2.09969950e+03
2.17100244e+03
9.34214158e+02
1.96154906e+03
2.11991866e+03
1.79607312e+03
7.47448531e+02
9.43443886e+02
0.00000000e+00
1.30169713e+03
9.24632622e+02
8.65019044e+02
1.76277751e+03
1.49172387e+03
1.95749691e+03
1.23379245e+03
1.15855962e+03
1.06002954e+03
2.06186952e+03
1.32753850e+03
1.03952871e+03
7.29099552e+02
1.83359815e+03
5.16477316e+02
1.96689268e+03
1.51448542e+03
9.34921044e+02
0.00000000e+00
9.49848200e+02
0.00000000e+00
0.00000000e+00
1.59686110e+03
6.26116766e+02
1.81256019e+03
1.92740433e+03
1.95856337e+03
5.95597018e+02
6.22582452e+02
1.26837721e+03
4.97863579e+02
1.10763527e+03
1.03398372e+03
1.10734675e+03
1.46265512e+03
7.97512535e+02
1.29327297e+03
8.43177554e+02
8.44017944e+02
0.00000000e+00
0.00000000e+00
1.46973293e+03
1.54078707e+03
1.74338542e+03
6.34931999e+02
1.81035998e+03
9.42230877e+02
1.37772557e+03
1.09481127e+03
1.73048411e+03
1.77883510e+03
9.74381712e+02
2.06566814e+03
9.20261770e+02
2.12670638e+03
1.71196403e+03
9.86755327e+02
1.69561819e+03
1.09226896e+03
1.48023588e+03
0.00000000e+00
0.00000000e+00
1.42819565e+03
0.00000000e+00
1.68459816e+03
9.87458845e+02
1.46455088e+03
6.15242919e+02
1.13484578e+03
9.32907605e+02
1.97998921e+03
7.13784322e+02
7.67621931e+02
1.12517017e+03
9.31017163e+02
7.25557198e+02
1.08460461e+03
1.16071736e+03
1.13892545e+03
1.27587032e+03
2.24005433e+03
0.00000000e+00
0.00000000e+00
1.11510381e+03
1.49644178e+03
1.05248984e+03
8.88857857e+02
1.10845293e+03
8.00208208e+02
1.48709093e+03
2.00008266e+03
1.32120329e+03
1.93778726e+03
9.46260953e+02
1.82182072e+03
6.78724292e+02
2.00130651e+03
6.89704886e+02
2.17595469e+03
1.49944066e+03
1.29295984e+03
2.06089855e+03
0.00000000e+00
0.00000000e+00
8.69359656e+02
1.55712538e+03
1.31549127e+03
1.16827924e+03
1.28570159e+03
1.36611276e+03
1.34269433e+03
1.10239541e+03
1.43048556e+03
1.72367533e+03
5.06502143e+02
1.66894703e+03
1.75657360e+03
2.15977721e+03
6.88042297e+02
9.36009471e+02
2.04644516e+03
1.53871159e+03
1.19411381e+03
0.00000000e+00
7.25055821e+02
0.00000000e+00
1.88329762e+03
1.91327366e+03
1.67036758e+03
1.91829528e+03
1.82876875e+03
1.20652236e+03
9.90895800e+02
1.80294649e+03
1.58916202e+03
1.33485932e+03
1.94697054e+03
7.10099531e+02
7.84781886e+02
2.09767674e+03
2.05088026e+03
7.86055812e+02
1.61231765e+03
1.89510471e+03
7.79384077e+02
0.00000000e+00
0.00000000e+00
1.54383198e+03
1.79287934e+03
1.68411761e+03
1.27853282e+03
1.20018818e+03
2.00089892e+03
1.14943254e+03
1.83055661e+03
1.50156770e+03
8.59963289e+02
1.87176360e+03
1.48085004e+03
1.17281455e+03
1.53043893e+03
1.90119278e+03
1.89257171e+03
1.61795174e+03
1.31076377e+03
8.79600284e+02
6.27791308e+02
6.71582763e+02
1.91174567e+03
5.41580672e+02
1.26428789e+03
8.67057323e+02
8.73621102e+02
7.37127178e+02
1.22954047e+03
1.42947273e+03
1.87807451e+03
8.11405903e+02
1.24124363e+03
7.95813899e+02
1.08980165e+03
1.24409671e+03
6.92356948e+02
1.78038673e+03
1.98663917e+03
1.94931887e+03
1.25322062e+03
0.00000000e+00
7.78858398e+02
9.24108955e+02
1.48141647e+03
1.03894484e+03
9.50826821e+02
1.90590701e+03
1.89656206e+03
1.59595447e+03
1.07671710e+03
1.22864232e+03
1.16892596e+03
1.09409034e+03
9.08782022e+02
1.24247914e+03
1.39748592e+03
1.99227786e+03
1.92497138e+03
1.71343326e+03
1.56323500e+03
1.01501047e+03
0.00000000e+00
8.65061197e+02
8.13563720e+02
1.92857407e+03
1.82738669e+03
1.52310397e+03
1.07460294e+03
1.35948088e+03
1.81745989e+03
1.33526358e+03
1.30114387e+03
1.22842912e+03
1.75449462e+03
1.65286481e+03
1.47350990e+03
1.36664982e+03
1.85820860e+03
2.15674071e+03
2.05975444e+03
1.37192702e+03
1.51332354e+03
8.25875396e+02
9.69450721e+02
9.80317819e+02
6.93110467e+02
1.89260275e+03
1.80652442e+03
1.80777125e+03
1.48726552e+03
1.27895283e+03
1.21812575e+03
1.19469655e+03
8.81026454e+02
9.46844469e+02
1.00505585e+03
9.69472829e+02
1.12996544e+03
4.81333296e+02
1.31445259e+03
5.31310083e+02
1.87944765e+03
1.09091890e+03
0.00000000e+00
9.18166308e+02
6.08385497e+02
0.00000000e+00
0.00000000e+00
0.00000000e+00
8.63623238e+02
8.86515277e+02
0.00000000e+00
8.98487816e+02
0.00000000e+00
1.20209028e+03
7.67883815e+02
8.89068179e+02
8.22284146e+02
0.00000000e+00
0.00000000e+00
0.00000000e+00
0.00000000e+00
0.00000000e+00
0.00000000e+00
0.00000000e+00
0.00000000e+00
1.26111940e+03
0.00000000e+00
2.04221294e+03
8.62784530e+02
1.02320934e+03