# vtk DataFile Version 3.0
MPS 3D Simulation Step 5100
ASCII
DATASET UNSTRUCTURED_GRID
POINTS 20213 double
-1.08595910e-03 3.53020426e-04 -9.56493615e-04
-1.00599645e-03 2.22611017e-04 -9.84862849e-04
-8.86913815e-04 2.44301409e-04 -1.10620354e-03
-8.49290016e-04 2.90973491e-04 -1.15949047e-03
-7.66216213e-04 1.53409506e-04 -1.13134088e-03
-7.42521977e-04 3.54387416e-04 -1.24854793e-03
-5.73121855e-04 1.79951958e-04 -1.25755378e-03
-4.62933546e-04 2.53584789e-04 -1.33489960e-03
-3.35093055e-04 1.42097827e-04 -1.31099376e-03
-3.64030707e-04 7.43650694e-04 -1.15203234e-03
-1.31243043e-04 6.69289072e-04 -1.34099163e-03
-2.28120472e-04 6.28163725e-04 -1.33255324e-03
-6.74147678e-05 3.22560133e-04 -1.31999174e-03
7.86520109e-05 1.35682651e-04 -1.35610582e-03
2.07535024e-04 1.17327667e-04 -1.32836693e-03
5.81567250e-04 1.39481158e-04 -1.23868198e-03
4.23760330e-04 5.40251025e-04 -1.13015349e-03
6.41192376e-04 1.16826528e-04 -1.15943230e-03
7.75991375e-04 3.43768605e-04 -1.09877472e-03
9.26837421e-04 5.09622526e-04 -9.67851838e-04
1.04569253e-03 2.93545529e-04 -8.33880464e-04
-1.03686982e-03 2.95984952e-04 -9.87116604e-04
-9.66903431e-04 2.65213436e-04 -1.04428734e-03
-9.30798852e-04 3.14296191e-04 -1.10125893e-03
-8.14311868e-04 3.61165820e-04 -1.20602647e-03
-7.73035090e-04 5.22753729e-04 -1.25226825e-03
-8.40038382e-04 4.35378131e-04 -1.20182449e-03
-6.95763348e-04 4.05791074e-04 -1.28466465e-03
-4.71928936e-04 3.38574561e-04 -1.36096742e-03
-2.85984005e-04 1.87155421e-04 -1.35376481e-03
-2.19671797e-04 1.49924418e-04 -1.33933009e-03
5.59272145e-05 2.02989801e-04 -1.40012058e-03
1.55375109e-04 1.63055080e-04 -1.37260989e-03
3.00944977e-04 2.40734353e-04 -1.38997831e-03
3.64399876e-04 2.83987556e-04 -1.38696512e-03
3.95226960e-04 2.11308200e-04 -1.35360337e-03
5.00806598e-04 1.33209578e-04 -1.26947009e-03
5.57408315e-04 1.97459720e-04 -1.28730869e-03
5.81095332e-04 2.34374026e-04 -1.16352597e-03
6.43649432e-04 1.87086724e-04 -1.23534213e-03
8.03216460e-04 1.89945714e-04 -1.14188846e-03
9.89195670e-04 1.44858443e-04 -9.79211849e-04
-9.96256082e-04 3.43273396e-04 -1.04739901e-03
-9.53524177e-04 3.97407526e-04 -1.10024694e-03
-9.66984380e-04 5.82524308e-04 -1.10068564e-03
-7.79501638e-04 2.87165635e-04 -1.20532777e-03
-8.86584257e-04 3.64369821e-04 -1.15206930e-03
-7.68808431e-04 4.40163606e-04 -1.24678513e-03
-5.41244039e-04 3.04051836e-04 -1.32624766e-03
-6.07898226e-04 2.63459429e-04 -1.28403620e-03
-3.34758704e-04 3.37547490e-04 -1.39718204e-03
-2.16663003e-04 2.28175721e-04 -1.38553988e-03
-5.90591492e-05 3.94291734e-04 -1.44719639e-03
1.25133337e-04 2.30058858e-04 -1.41085828e-03
2.05497213e-04 3.69319806e-04 -1.43858224e-03
4.49875799e-04 2.70225362e-04 -1.35636536e-03
3.32455303e-04 1.70458997e-04 -1.34758773e-03
5.01120911e-04 3.31529589e-04 -1.35509290e-03
6.18420778e-04 2.54517674e-04 -1.28162364e-03
5.33723725e-04 2.60266871e-04 -1.32309200e-03
7.66122979e-04 2.41879762e-04 -1.19415599e-03
8.78746218e-04 1.85359906e-04 -1.09223403e-03
9.03568154e-04 1.20395513e-04 -1.02933911e-03
-1.11417868e-03 4.24382052e-04 -9.29953123e-04
-1.00669654e-03 4.46618439e-04 -1.05654909e-03
-9.59594730e-04 4.97394862e-04 -1.10529259e-03
-8.42026101e-04 5.13694212e-04 -1.20315491e-03
-7.02928652e-04 4.86685488e-04 -1.29065912e-03
-6.58345444e-04 3.29944617e-04 -1.28804704e-03
-5.96624243e-04 3.63327393e-04 -1.32250514e-03
-2.77903686e-04 2.81692859e-04 -1.39440829e-03
-2.08650428e-04 3.17378689e-04 -1.41776402e-03
-1.46719308e-04 1.84074334e-04 -1.37471252e-03
2.91692594e-05 4.15358208e-04 -1.45265946e-03
-6.56424533e-06 1.62997495e-04 -1.37610942e-03
7.71794948e-05 3.01350335e-04 -1.43218412e-03
1.64797845e-04 3.00800224e-04 -1.42860535e-03
3.18286933e-04 3.47177900e-04 -1.41484741e-03
4.70468524e-04 1.94150129e-04 -1.31774505e-03
5.53357536e-04 3.97159985e-04 -1.34536769e-03
8.11868975e-04 3.09286546e-04 -1.19227021e-03
8.51492335e-04 2.54070002e-04 -1.14379554e-03
9.27348216e-04 2.52893772e-04 -1.09346343e-03
9.97128137e-04 2.62399215e-04 -1.03736693e-03
-1.12139224e-03 5.10571271e-04 -9.23173795e-04
-9.10765943e-04 6.24567504e-04 -1.15006913e-03
-9.05782456e-04 4.47274008e-04 -1.14929047e-03
-7.01931029e-04 5.72563796e-04 -1.29239494e-03
-5.57494391e-04 4.78501434e-04 -1.35078033e-03
-6.26046625e-04 4.39539308e-04 -1.32158787e-03
-2.60382917e-04 3.78199968e-04 -1.42123108e-03
-1.85943274e-04 4.17992026e-04 -1.43787696e-03
-1.34963102e-04 3.56100608e-04 -1.43502108e-03
-2.93143056e-05 4.80268906e-04 -1.45549329e-03
4.89852943e-05 5.21682033e-04 -1.45681723e-03
-6.75367437e-05 3.04717285e-04 -1.42973487e-03
9.80236557e-05 4.61966786e-04 -1.45457083e-03
3.13830286e-04 4.81060137e-04 -1.42153568e-03
1.13594134e-04 3.76550794e-04 -1.44493690e-03
4.13108845e-04 3.49998929e-04 -1.38663640e-03
4.68859131e-04 4.09367817e-04 -1.37687575e-03
6.93531936e-04 2.57205503e-04 -1.24288806e-03
9.01035339e-04 3.17941299e-04 -1.13466133e-03
9.76758047e-04 3.25970686e-04 -1.07775691e-03
9.41497673e-04 3.89063275e-04 -1.11645079e-03
-1.13012114e-03 5.94576956e-04 -9.16554550e-04
-1.01941783e-03 5.33881227e-04 -1.04551317e-03
-8.54212804e-04 6.75080035e-04 -1.18843730e-03
-9.05300250e-04 5.40409587e-04 -1.15479817e-03
-6.32838138e-04 5.26394342e-04 -1.32579897e-03
-4.68777576e-04 4.47355890e-04 -1.37828613e-03
-4.07981452e-04 3.87220075e-04 -1.38649359e-03
-3.26864669e-04 4.26205551e-04 -1.41294162e-03
-1.10727691e-04 4.57502576e-04 -1.45020167e-03
-1.79014901e-04 5.11530189e-04 -1.44579340e-03
-1.03430172e-04 5.45619082e-04 -1.45269878e-03
8.92922369e-06 3.39844976e-04 -1.44139552e-03
2.67251865e-04 4.16111981e-04 -1.43217562e-03
3.62521747e-04 4.14012070e-04 -1.40886111e-03
2.07514539e-04 2.31127733e-04 -1.40147311e-03
3.53145506e-04 6.20552267e-04 -1.40456410e-03
4.20940016e-04 4.72038738e-04 -1.39583695e-03
5.86933255e-04 3.25053079e-04 -1.31926899e-03
7.41751280e-04 3.21616001e-04 -1.23669564e-03
8.61101799e-04 3.73670354e-04 -1.17462498e-03
1.03721073e-03 4.86833395e-04 -1.03362881e-03
-1.07507586e-03 5.58305771e-04 -9.81360072e-04
-1.06678660e-03 4.73541611e-04 -9.88919146e-04
-9.23258924e-04 7.03004754e-04 -1.12801120e-03
-7.75704531e-04 6.01923178e-04 -1.24814675e-03
-6.33716378e-04 6.11300897e-04 -1.32539090e-03
-4.89154634e-04 5.28991215e-04 -1.37969509e-03
-3.96452088e-04 4.75906000e-04 -1.40364161e-03
-2.54073921e-04 4.72205349e-04 -1.43231215e-03
-3.29293325e-04 5.17983027e-04 -1.42103640e-03
-2.55033845e-04 5.60079516e-04 -1.43575677e-03
-2.22267684e-05 5.69666328e-04 -1.45531786e-03
1.44889130e-04 5.39438950e-04 -1.44746357e-03
1.74459720e-04 4.45697067e-04 -1.44795539e-03
2.26083983e-04 5.04427705e-04 -1.43815317e-03
2.89879304e-04 5.62302111e-04 -1.42290076e-03
5.89584025e-04 4.73850222e-04 -1.33662194e-03
5.53881441e-04 5.52861317e-04 -1.35300951e-03
6.65308652e-04 3.30767153e-04 -1.28262605e-03
6.34561386e-04 4.02931672e-04 -1.30920127e-03
9.69959158e-04 4.70229445e-04 -1.09475332e-03
9.18862425e-04 5.26581724e-04 -1.13283778e-03
-1.13816650e-03 6.77416370e-04 -8.97791093e-04
-1.02864605e-03 6.16550168e-04 -1.03553280e-03
-9.79923561e-04 6.61835456e-04 -1.08491863e-03
-8.46053459e-04 5.93857747e-04 -1.20108596e-03
-5.60140190e-04 5.66491882e-04 -1.35562914e-03
-4.14420671e-04 5.58500704e-04 -1.40156388e-03
-4.12422636e-04 6.47819861e-04 -1.39947013e-03
-3.41431411e-04 6.03221218e-04 -1.41951989e-03
-2.63492231e-04 6.43250654e-04 -1.43107537e-03
-1.81026212e-04 6.01378197e-04 -1.44379847e-03
-9.98765965e-05 6.28548714e-04 -1.45058666e-03
6.21242625e-05 5.99554982e-04 -1.45295059e-03
1.38956917e-04 6.24049014e-04 -1.44200862e-03
2.16399311e-04 5.97118626e-04 -1.43307412e-03
2.85312122e-04 6.60999875e-04 -1.41178705e-03
5.10105973e-04 4.83651666e-04 -1.36661770e-03
4.62178738e-04 5.54260901e-04 -1.38211843e-03
6.32396619e-04 5.53748517e-04 -1.31660350e-03
7.14613652e-04 4.00622387e-04 -1.26844884e-03
8.96431963e-04 4.45232176e-04 -1.15386574e-03
8.76486253e-04 6.12923858e-04 -1.15544389e-03
-1.08390962e-03 6.45436866e-04 -9.71047614e-04
-1.03831476e-03 6.99509357e-04 -1.01797241e-03
-9.86237586e-04 7.42442822e-04 -1.06419516e-03
-6.45254757e-04 6.89857051e-04 -1.31312649e-03
-5.63565679e-04 6.52346481e-04 -1.35218548e-03
-4.86663958e-04 6.13032285e-04 -1.37988921e-03
-4.22109445e-04 7.28260510e-04 -1.38528822e-03
-3.37934822e-04 6.86842725e-04 -1.41235695e-03
-2.62866249e-04 7.28225718e-04 -1.41821001e-03
-1.86679422e-04 6.84057591e-04 -1.43858558e-03
-1.09653157e-04 7.10075694e-04 -1.44085433e-03
-1.98253940e-05 6.53897598e-04 -1.45064426e-03
5.69949507e-05 6.85585211e-04 -1.44410964e-03
1.33212376e-04 7.07828670e-04 -1.43483833e-03
2.09539162e-04 6.84373951e-04 -1.42555323e-03
4.30374148e-04 6.31438616e-04 -1.38661978e-03
4.33125790e-04 7.68026940e-04 -1.35866815e-03
5.14499381e-04 6.23597220e-04 -1.36241982e-03
6.73580489e-04 4.78486293e-04 -1.29543835e-03
7.87913070e-04 3.90187133e-04 -1.22230250e-03
8.55953087e-04 5.34308772e-04 -1.18032088e-03
-1.09289289e-03 7.27321081e-04 -9.45675277e-04
-9.89301106e-04 8.18866916e-04 -1.03336539e-03
-8.64568841e-04 7.52103837e-04 -1.16561502e-03
-7.13748672e-04 6.55533468e-04 -1.28120444e-03
-6.58038588e-04 7.66034969e-04 -1.29044327e-03
-4.93825990e-04 6.94679511e-04 -1.37106345e-03
-5.09218167e-04 7.74695877e-04 -1.34763048e-03
-3.49090775e-04 7.67504283e-04 -1.39253075e-03
-2.79057564e-04 8.07727430e-04 -1.39519557e-03
-1.87681282e-04 7.64146636e-04 -1.42028261e-03
-1.09551521e-04 7.89002969e-04 -1.42348583e-03
-2.88886088e-05 7.33916828e-04 -1.43973714e-03
4.62658757e-05 7.66812950e-04 -1.42917432e-03
1.27912804e-04 7.85788738e-04 -1.41807161e-03
2.13367755e-04 7.66881227e-04 -1.40891465e-03
3.74136837e-04 7.05384564e-04 -1.38367254e-03
5.12549172e-04 7.76558544e-04 -1.33472809e-03
4.71451106e-04 6.97936038e-04 -1.36596115e-03
7.12465119e-04 5.51268929e-04 -1.27271752e-03
8.26605252e-04 4.60321061e-04 -1.20200029e-03
8.53282841e-04 6.93917446e-04 -1.15911130e-03
-1.04582883e-03 7.77823921e-04 -9.89615729e-04
-9.85270640e-04 8.91924851e-04 -9.95969408e-04
[...]
POINT_DATA 20213
SCALARS pressure double 1
LOOKUP_TABLE default
0.00000000e+00
0.00000000e+00
0.00000000e+00
0.00000000e+00
0.00000000e+00
8.83272214e+02
8.22548200e+02
9.60611286e+02
0.00000000e+00
1.21586074e+03
9.95987778e+02
9.20335675e+02
1.28311901e+03
0.00000000e+00
6.05733910e+02
5.50499143e+02
1.01154909e+03
5.02505827e+02
7.71375249e+02
8.86096898e+02
6.91348382e+02
7.62790540e+02
0.00000000e+00
0.00000000e+00
0.00000000e+00
0.00000000e+00
0.00000000e+00
0.00000000e+00
9.99425906e+02
0.00000000e+00
0.00000000e+00
0.00000000e+00
0.00000000e+00
0.00000000e+00
7.35521361e+02
0.00000000e+00
0.00000000e+00
0.00000000e+00
7.61147869e+02
0.00000000e+00
0.00000000e+00
0.00000000e+00
0.00000000e+00
6.48142113e+02
0.00000000e+00
8.41548510e+02
0.00000000e+00
6.75196930e+02
1.00024900e+03
9.34260797e+02
9.82618641e+02
0.00000000e+00
1.12217204e+03
0.00000000e+00
1.13373033e+03
8.29257792e+02
0.00000000e+00
8.54550876e+02
0.00000000e+00
0.00000000e+00
0.00000000e+00
0.00000000e+00
0.00000000e+00
9.15594681e+02
0.00000000e+00
0.00000000e+00
6.90992846e+02
0.00000000e+00
0.00000000e+00
0.00000000e+00
9.67886223e+02
1.15645022e+03
0.00000000e+00
0.00000000e+00
8.12888285e+02
1.20571569e+03
0.00000000e+00
0.00000000e+00
0.00000000e+00
7.96405002e+02
0.00000000e+00
0.00000000e+00
0.00000000e+00
0.00000000e+00
8.01500103e+02
6.23392883e+02
0.00000000e+00
0.00000000e+00
0.00000000e+00
0.00000000e+00
1.03883849e+03
0.00000000e+00
1.20146453e+03
0.00000000e+00
7.89178400e+02
1.33864476e+03
9.63566146e+02
7.95970511e+02
1.17586811e+03
7.38416265e+02
7.50851456e+02
0.00000000e+00
0.00000000e+00
0.00000000e+00
7.97426968e+02
0.00000000e+00
0.00000000e+00
5.91466812e+02
7.25815696e+02
0.00000000e+00
8.44632378e+02
9.73648589e+02
9.39267199e+02
0.00000000e+00
0.00000000e+00
0.00000000e+00
1.28561452e+03
1.02036563e+03
0.00000000e+00
0.00000000e+00
0.00000000e+00
0.00000000e+00
7.69785035e+02
7.43128452e+02
6.79205279e+02
7.39182320e+02
0.00000000e+00
7.23630258e+02
0.00000000e+00
0.00000000e+00
0.00000000e+00
7.09138255e+02
8.41161156e+02
0.00000000e+00
0.00000000e+00
0.00000000e+00
7.57904442e+02
0.00000000e+00
1.07734769e+03
7.94671209e+02
0.00000000e+00
0.00000000e+00
0.00000000e+00
7.44361797e+02
6.80257117e+02
8.26794937e+02
7.63528357e+02
0.00000000e+00
6.32220598e+02
0.00000000e+00
6.44635909e+02
0.00000000e+00
7.25011443e+02
0.00000000e+00
0.00000000e+00
5.94200539e+02
0.00000000e+00
0.00000000e+00
7.05395360e+02
0.00000000e+00
5.75782776e+02
0.00000000e+00
0.00000000e+00
0.00000000e+00
0.00000000e+00
6.67450591e+02
8.08709354e+02
0.00000000e+00
0.00000000e+00
0.00000000e+00
0.00000000e+00
0.00000000e+00
0.00000000e+00
7.10779132e+02
6.53174356e+02
0.00000000e+00
0.00000000e+00
8.17628938e+02
8.05810948e+02
0.00000000e+00
0.00000000e+00
0.00000000e+00
0.00000000e+00
0.00000000e+00
8.33537893e+02
0.00000000e+00
0.00000000e+00
7.27388740e+02
0.00000000e+00
8.52892229e+02
9.27366621e+02
0.00000000e+00
0.00000000e+00
5.62411278e+02
0.00000000e+00
0.00000000e+00
8.06083476e+02
0.00000000e+00
8.80932506e+02
8.99426780e+02
0.00000000e+00
0.00000000e+00
0.00000000e+00
0.00000000e+00
5.67792708e+02
8.06384876e+02
0.00000000e+00
0.00000000e+00
0.00000000e+00
0.00000000e+00
9.64996100e+02
0.00000000e+00
0.00000000e+00
0.00000000e+00
0.00000000e+00
6.28489716e+02
8.82372284e+02
9.37105187e+02
0.00000000e+00
0.00000000e+00
1.05323751e+03
9.48669098e+02
0.00000000e+00
0.00000000e+00
0.00000000e+00
0.00000000e+00
0.00000000e+00
0.00000000e+00
6.43070969e+02
6.38327855e+02
7.09977030e+02
1.03794759e+03
9.50384360e+02
0.00000000e+00
0.00000000e+00
0.00000000e+00
5.64890936e+02
6.75864366e+02
0.00000000e+00
0.00000000e+00
0.00000000e+00
0.00000000e+00
0.00000000e+00
0.00000000e+00
7.38585673e+02
0.00000000e+00
8.20228846e+02
8.27047098e+02
8.60541490e+02
0.00000000e+00
6.02402213e+02
0.00000000e+00
0.00000000e+00
1.08105280e+03
9.76669355e+02
0.00000000e+00
0.00000000e+00
0.00000000e+00
0.00000000e+00
0.00000000e+00
0.00000000e+00
0.00000000e+00
0.00000000e+00
7.20837166e+02
0.00000000e+00
7.74478629e+02
9.00189379e+02
8.52954998e+02
8.24287269e+02
0.00000000e+00
0.00000000e+00
0.00000000e+00
0.00000000e+00
1.22541626e+03
0.00000000e+00
1.09914820e+03
8.41433853e+02
0.00000000e+00
0.00000000e+00
8.59598655e+02
0.00000000e+00
0.00000000e+00
0.00000000e+00
0.00000000e+00
9.16586914e+02
0.00000000e+00
1.05412414e+03
1.12880698e+03
1.00567098e+03
0.00000000e+00
0.00000000e+00
0.00000000e+00
0.00000000e+00
0.00000000e+00
1.15997102e+03
1.31082848e+03
1.15121105e+03
1.16075195e+03
0.00000000e+00
8.25209872e+02
8.32308659e+02
0.00000000e+00
0.00000000e+00
0.00000000e+00
1.07549722e+03
9.70023959e+02
9.60199570e+02
1.09444129e+03
1.09070317e+03
1.12497093e+03
0.00000000e+00
0.00000000e+00
0.00000000e+00
0.00000000e+00
0.00000000e+00
1.30258236e+03
0.00000000e+00
1.28717462e+03
1.21297473e+03
0.00000000e+00
8.43589690e+02
0.00000000e+00
8.88989244e+02
9.57325471e+02
9.95622061e+02
1.05950338e+03
9.74232136e+02
1.12150906e+03
1.00588291e+03
0.00000000e+00
1.07427334e+03
0.00000000e+00
0.00000000e+00
0.00000000e+00
0.00000000e+00
7.04284587e+02
1.35396673e+03
1.26298750e+03
1.22978134e+03
9.18190542e+02
0.00000000e+00
5.72727423e+02
0.00000000e+00
9.48059248e+02
8.22676999e+02
0.00000000e+00
9.42384230e+02
0.00000000e+00
9.06212050e+02
0.00000000e+00
1.02436102e+03
0.00000000e+00
0.00000000e+00
0.00000000e+00
0.00000000e+00
0.00000000e+00
8.21180793e+02
1.29219374e+03
0.00000000e+00
0.00000000e+00
1.03162510e+03
8.11564916e+02
0.00000000e+00
0.00000000e+00
0.00000000e+00
6.87128848e+02
0.00000000e+00
0.00000000e+00
1.00771191e+03
0.00000000e+00
1.03822841e+03
1.04673486e+03
1.25626872e+03
1.01791823e+03
1.02752972e+03
9.09057110e+02
9.76977922e+02
0.00000000e+00
0.00000000e+00
1.23792861e+03
1.16374270e+03
0.00000000e+00
0.00000000e+00
0.00000000e+00
0.00000000e+00
0.00000000e+00
0.00000000e+00
0.00000000e+00
0.00000000e+00
8.38391591e+02
9.35203295e+02
1.07385633e+03
1.18812583e+03
1.08394192e+03
1.14636735e+03
1.05832766e+03
1.05356781e+03
0.00000000e+00
8.92503710e+02
9.73453406e+02
9.23827532e+02
7.62820541e+02
4.86743797e+02
0.00000000e+00
0.00000000e+00
0.00000000e+00
0.00000000e+00
0.00000000e+00
0.00000000e+00
0.00000000e+00
0.00000000e+00
0.00000000e+00
9.85092735e+02
0.00000000e+00
0.00000000e+00
1.09801047e+03
1.03667811e+03
1.07477564e+03
0.00000000e+00
0.00000000e+00
0.00000000e+00
0.00000000e+00
6.84171177e+02
0.00000000e+00
0.00000000e+00
0.00000000e+00
0.00000000e+00
0.00000000e+00
0.00000000e+00
0.00000000e+00
0.00000000e+00
0.00000000e+00
8.38631128e+02
9.46738670e+02
1.00946963e+03
9.58721661e+02
0.00000000e+00
9.62488654e+02
1.11958711e+03
1.12865992e+03
1.05146122e+03
0.00000000e+00
8.19668794e+02
9.21595149e+02
6.57879550e+02
0.00000000e+00
8.13623253e+02
7.81868538e+02
9.27734743e+02
0.00000000e+00
1.18975419e+03
1.38513872e+03
1.32618635e+03
1.13320454e+03
9.39935506e+02
9.51595640e+02
1.07902502e+03
0.00000000e+00
8.14467703e+02
9.15054214e+02
0.00000000e+00
5.59631256e+02
9.82237245e+02
1.39938023e+03
1.37026383e+03
1.73715443e+03
1.06466660e+03
1.40441902e+03
1.17928770e+03
1.31296713e+03
1.00661653e+03
1.46423989e+03
2.02883456e+03
2.04564944e+03
8.10227976e+02
2.04961536e+03
1.77402058e+03
9.65428363e+02
1.17730779e+03
7.95789293e+02
1.09681596e+03
8.77578602e+02
8.22809201e+02
6.94242930e+02
1.38226773e+03
1.42767124e+03
1.49724235e+03
7.78753802e+02
1.50822719e+03
1.72115262e+03
0.00000000e+00
0.00000000e+00
7.18711871e+02
1.09533883e+03
1.21660035e+03
1.04209674e+03
9.86327262e+02
1.92577504e+03
1.06423428e+03
8.72883283e+02
5.56271716e+02
1.04623699e+03
1.08541128e+03
0.00000000e+00
9.07291584e+02
1.23110771e+03
2.08822766e+03
1.46644632e+03
1.16245971e+03
1.89299589e+03
9.58100821e+02
1.29864130e+03
9.55914452e+02
1.57063649e+03
1.17355921e+03
1.37904439e+03
1.32924964e+03
1.43561327e+03
1.22652621e+03
1.13862725e+03
1.22623875e+03
1.32478469e+03
8.01725942e+02
1.18300368e+03
7.65841574e+02
0.00000000e+00
1.45843008e+03
1.22620640e+03
1.36791196e+03
2.16608897e+03
1.87386803e+03
1.13848229e+03
1.15486054e+03
1.11952797e+03
1.61890876e+03
1.85822042e+03
1.98314427e+03
1.02872523e+03
1.63729902e+03
1.03660756e+03
1.67223149e+03
9.88556509e+02
1.18942175e+03
1.34084993e+03
7.76153985e+02
6.85197469e+02
0.00000000e+00
2.08392448e+03
1.37542959e+03
1.23364191e+03
1.86943359e+03
0.00000000e+00
2.10138633e+03
1.41196364e+03
1.08311024e+03
1.17386634e+03
2.02891671e+03
1.12871180e+03
1.40454759e+03
1.27874089e+03
1.05708332e+03
0.00000000e+00
1.05970479e+03
1.01709926e+03
6.62776667e+02
1.03011897e+03
0.00000000e+00
9.22210614e+02
1.54230435e+03
1.31773542e+03
1.30257394e+03
1.45074437e+03
1.03013921e+03
1.65585347e+03
1.37802806e+03
1.03202938e+03
1.94364167e+03
1.08925007e+03
1.54902493e+03
2.00634788e+03
1.26807439e+03
1.17341947e+03
1.25437989e+03
1.15473057e+03
6.78183173e+02
8.28684619e+02
7.21226875e+02
7.79017808e+02
0.00000000e+00
1.38971853e+03
7.37441845e+02
1.16036869e+03
1.31789891e+03
1.76753117e+03
1.09536907e+03
2.06233332e+03
1.83510262e+03
1.59667533e+03
1.34003782e+03
1.16457902e+03
1.92961114e+03
1.22229704e+03
1.44492837e+03
1.46472144e+03
9.58745836e+02
1.12542419e+03
0.00000000e+00
9.21467783e+02
6.63000580e+02
0.00000000e+00
1.83642041e+03
6.42979196e+02
1.18182884e+03
1.80536715e+03
1.55353825e+03
1.03079400e+03
1.94744586e+03
1.38555793e+03
1.27410177e+03
1.20597446e+03
2.10310340e+03
1.83348752e+03
1.27034591e+03
1.14576734e+03
9.54421930e+02
2.02609468e+03
2.07775796e+03
6.51664633e+02
1.23956826e+03
0.00000000e+00
0.00000000e+00
2.00053523e+03
0.00000000e+00
1.13151490e+03
1.11748496e+03
7.98885174e+02
7.96480869e+02
4.35053738e+02
1.86161323e+03
1.08138369e+03
1.28719985e+03
1.29488100e+03
1.99083346e+03
1.06825631e+03
1.16700412e+03
1.14739457e+03
9.21709506e+02
1.21621651e+03
0.00000000e+00
1.06316282e+03
0.00000000e+00
0.00000000e+00
1.50203077e+03
0.00000000e+00
8.86437475e+02
8.75371117e+02
9.33335029e+02
5.72294851e+02
1.00836302e+03
1.29586107e+03
1.69341149e+03
9.81762816e+02
1.85650929e+03
1.27759304e+03
1.78483830e+03
1.21425692e+03
1.12403584e+03
1.61295440e+03
2.21397552e+03
0.00000000e+00
1.30263338e+03
0.00000000e+00
1.04963008e+03
1.41213573e+03
0.00000000e+00
1.04266452e+03
1.11188482e+03
5.69683261e+02
6.87760271e+02
7.34315991e+02
1.96939401e+03
1.42358103e+03
2.10250939e+03
1.43279069e+03
1.44488709e+03
1.04274955e+03
1.47702849e+03
1.23113263e+03
1.20153056e+03
1.19950846e+03
7.60779009e+02
1.09443687e+03
0.00000000e+00
1.22315060e+03
1.47910521e+03
8.54145862e+02
1.39869731e+03
1.80907568e+03
8.52717936e+02
5.08048027e+02
1.92105229e+03
1.90085699e+03
8.49929772e+02
1.33927634e+03
2.05163852e+03
1.58210385e+03
2.08697631e+03
1.19845173e+03
1.26841482e+03
1.29872156e+03
1.95979384e+03
6.47946512e+02
1.54295254e+03
0.00000000e+00
0.00000000e+00
1.22462283e+03
0.00000000e+00
1.36107444e+03
8.06309519e+02
5.06065060e+02
7.41924100e+02
7.79199196e+02
1.93105455e+03
1.93851818e+02
8.15149946e+02
3.19169376e+02
1.07449355e+03
8.60270853e+02
1.14599482e+03
1.29040372e+03
1.23668695e+03
1.41960085e+03
0.00000000e+00
1.09357907e+03
7.05660089e+02
1.31139472e+03
8.79182879e+02
6.66700136e+02
9.36859052e+02
1.32138861e+03
8.44652220e+02
1.83367156e+03
2.05501174e+03
1.55596074e+03
3.45095230e+02
1.93048461e+03
6.73940684e+02
8.90161032e+02
5.90587768e+02
1.18153308e+03
1.51266905e+03
2.01785586e+03
1.16388714e+03
1.24848676e+03
1.20337068e+03
8.21765252e+02
1.46207221e+03
1.04104336e+03
9.62949191e+02
7.06902839e+02
4.76057230e+02
7.86123173e+02
7.46327531e+02
0.00000000e+00
2.77811609e+02
6.06989464e+02
8.64560091e+02
1.55070953e+03
1.24065385e+03
9.51826412e+02
1.14314375e+03
8.90819987e+02
1.75912048e+03
1.15308272e+03
1.37810853e+03
1.18830661e+03
8.34341846e+02
1.33239146e+03
1.53545892e+03
1.54509020e+03
5.67846481e+02
2.22173139e+03
1.32451641e+02
6.60638467e+02
7.67525865e+01
1.47379578e+03
8.83493516e+01
1.09797562e+03
9.31022819e+02
1.32253069e+03
1.23304429e+03
2.16243662e+03
1.21505505e+03
2.14432387e+03
1.27180907e+03
1.79154633e+03
8.45246332e+02
9.66076962e+02
9.06151913e+02
9.53911650e+02
5.83779100e+02
9.47028523e+02
3.44588600e+02
1.84463810e+03
5.81892720e+02
8.94052078e+01
1.26567664e+03
6.57382101e+02
8.73077178e+02
9.35088120e+02
2.10405423e+03
1.81054834e+03
1.25709854e+03
1.07977491e+03
1.18132388e+03
1.47255065e+03
1.09318523e+03
9.21636631e+02
0.00000000e+00
1.13339984e+03
1.13441547e+03
6.88151759e+02
4.61603206e+02
1.52482096e+03
8.19565349e+02
2.36535240e+02
0.00000000e+00
0.00000000e+00
7.48859116e+02
0.00000000e+00
7.10774929e+02
0.00000000e+00
0.00000000e+00
9.65896050e+02
1.20377077e+03
1.12558100e+03
9.49611474e+02
8.34697785e+02
1.33746837e+03
0.00000000e+00
0.00000000e+00
1.94541695e+03
4.89655974e+02
1.55172341e+03
3.49359913e+02
1.35858187e+03
5.89770416e+02
2.03026012e+02
9.52263003e+02
6.50826079e+02
1.60487235e+03
1.01985026e+03
1.82441442e+03
8.66351168e+02
8.97424278e+02
1.00952683e+03
9.41181932e+02
1.22166654e+03
1.11138648e+03
2.09981914e+03
0.00000000e+00
0.00000000e+00
0.00000000e+00
0.00000000e+00
0.00000000e+00
4.31022842e+02
0.00000000e+00
0.00000000e+00
0.00000000e+00
0.00000000e+00
0.00000000e+00
0.00000000e+00
0.00000000e+00
8.31993546e+02
9.39683274e+02
1.01171891e+03
0.00000000e+00
0.00000000e+00
8.23546469e+02
9.87803721e+02
1.01813648e+03
1.04306683e+03
1.05599818e+03
9.49548788e+02
0.00000000e+00
0.00000000e+00
1.10891448e+03
6.11098052e+02
7.42659906e+02
9.41164387e+02
9.39238158e+02
9.05661411e+02
8.88714919e+02
1.37545532e+03
9.99669306e+02
5.79485386e+02
8.72236588e+02
0.00000000e+00
5.16046459e+02
8.21332388e+02
0.00000000e+00
0.00000000e+00
6.18507311e+02
0.00000000e+00
9.65501323e+02
1.43788751e+03
1.35992593e+03
1.14995722e+03
1.27384001e+03
1.11049059e+03
7.21646031e+02
1.75707039e+03
0.00000000e+00
1.16886650e+03
1.23809650e+03
1.09147334e+03
0.00000000e+00
1.04812939e+03
1.03038765e+03
1.81057115e+03
1.05497298e+03
1.06224620e+03
9.07272862e+02
5.46797820e+02
9.86978868e+02
1.38246477e+03
2.11376611e+03
1.97233660e+03
1.97873645e+03
1.16154196e+03
2.07000671e+03
1.25063186e+03
1.87546535e+03
1.07698883e+03
1.17385396e+03
1.83500731e+03
1.93305194e+03
1.28310668e+03
1.16142771e+03
1.45284470e+03
1.80264472e+03
8.27444008e+02
7.99287037e+02
1.16286762e+03
0.00000000e+00
0.00000000e+00
1.45141406e+03
1.13408452e+03
1.03385478e+03
1.30390767e+03
7.45291387e+02
1.35944944e+03
1.05456050e+03
1.63937017e+03
1.10197993e+03
1.13131476e+03
1.49699214e+03
1.38274116e+03
1.21090146e+03
1.13994414e+03
9.82297713e+02
1.62595728e+03
1.25910302e+03
9.23458265e+02
2.10876585e+03
8.42866961e+02
1.21149918e+03
1.32984236e+03
1.83522946e+03
1.08395042e+03
1.64911861e+03
1.85341671e+03
1.07413671e+03
1.44393357e+03
8.74163621e+02
1.37184988e+03
1.09061558e+03
1.00458524e+03
1.21651670e+03
1.21532315e+03
1.81784469e+03
5.67639205e+02
9.09633753e+02
1.26311486e+03
1.52318620e+03
1.34217631e+03
7.53241879e+02
0.00000000e+00
1.39911059e+03
1.85218405e+03
1.40916900e+03
1.94986055e+03
1.82937738e+03
1.15670440e+03
1.19011190e+03
1.36570472e+03
1.33403137e+03
9.56793465e+02
1.89710295e+03
1.78098997e+03
6.73564808e+02
1.18232247e+03
1.88285649e+03
1.35611407e+03
2.09606800e+03
1.53581613e+03
7.97004313e+02
0.00000000e+00
0.00000000e+00
1.41886248e+03
2.05342449e+03
9.76200113e+02
1.91702682e+03
1.21436133e+03
1.34826233e+03
1.61250387e+03
1.82642582e+03
2.06402124e+03
1.29490569e+03
9.48530754e+02
1.46346285e+03
1.13689663e+03
1.45502794e+03
2.13152879e+03
1.43187738e+03
1.80546028e+03
1.93052502e+03
1.01084304e+03
6.36029054e+02
9.03145753e+02
0.00000000e+00
2.11778851e+03
1.98003060e+03
1.83308444e+03
1.86489282e+03
8.32515962e+02
1.44639856e+03
8.80267436e+02
1.24384520e+03
2.00357232e+03
1.42323005e+03
1.13921919e+03
2.01161225e+03
1.88652718e+03
1.28437584e+03
1.79744348e+03
2.03927848e+03
1.72883210e+03
5.29787330e+02
0.00000000e+00
8.82394987e+02
0.00000000e+00
1.35595576e+03
1.34462606e+03
2.01752081e+03
1.13005632e+03
1.93805414e+03
9.94779710e+02
1.71887198e+03
1.62603995e+03
1.69292281e+03
1.18480180e+03
1.81240752e+03
1.98191413e+03
2.07436762e+03
7.38797565e+02
2.33463449e+03
1.50714589e+03
2.10226534e+03
0.00000000e+00
0.00000000e+00
0.00000000e+00
0.00000000e+00
2.08573045e+03
1.34499014e+03
2.05269978e+03
2.08341854e+03
2.00928344e+03
1.36204431e+03
8.81565209e+02
1.86794138e+03
1.02635008e+03
1.74592822e+03
1.23557692e+03
1.08736765e+03
1.44100204e+03
2.05399376e+03
1.31044636e+03
1.13572572e+03
2.06865686e+03
0.00000000e+00
0.00000000e+00
9.83002829e+02
0.00000000e+00
1.32735430e+03
1.26835114e+03
1.95100098e+03
1.71711124e+03
1.48377505e+03
8.62805078e+02
2.09503385e+03
1.86887580e+03
1.25364811e+03
2.03672754e+03
7.87232815e+02
2.03054474e+03
1.67095565e+03
1.31506824e+03
9.89471442e+02
1.24428761e+03
1.38462360e+03
0.00000000e+00
0.00000000e+00
0.00000000e+00
0.00000000e+00
2.07023899e+03
1.18752901e+03
1.75754291e+03
1.49034829e+03
1.43582264e+03
7.85953932e+02
2.10025293e+03
1.74311547e+03
1.52679417e+03
1.42032754e+03
9.28829096e+02
1.99763297e+03
1.30232378e+03
1.42326125e+03
1.03604046e+03
1.26271598e+03
2.29454608e+03
0.00000000e+00
0.00000000e+00
1.19820806e+03
1.10798309e+03
2.15049126e+03
1.13987403e+03
1.89074343e+03
1.62731904e+03
1.89637700e+03
2.17884822e+03
1.82334926e+03
2.19334062e+03
1.64645548e+03
2.16201050e+03
7.06828577e+02
1.71420919e+03
1.53975892e+03
2.28933780e+03
2.39162650e+03
1.27485773e+03
2.40806893e+03
0.00000000e+00
7.06362867e+02
1.29796058e+03
0.00000000e+00
2.23194312e+03
8.62389304e+02
2.09456955e+03
1.48903077e+03
1.45412386e+03
1.65372835e+03
1.32246480e+03
1.91342573e+03
8.22379249e+02
2.18468715e+03
2.16951658e+03
2.05480686e+03
1.17855659e+03
1.30986717e+03
2.25524752e+03
1.64404356e+03
1.23466123e+03
0.00000000e+00
0.00000000e+00
1.25744017e+03
1.89303121e+03
1.73357204e+03
1.48959431e+03
2.23003387e+03
1.89561540e+03
1.35577060e+03
2.48327450e+02
2.12225032e+03
1.77746667e+03
1.39268988e+03
1.91591643e+03
1.79552805e+03
1.12484263e+03
2.06143207e+03
2.22320124e+03
6.33406485e+02
1.42913814e+03
1.82171818e+03
1.17227314e+03
0.00000000e+00
1.46133095e+03
1.33558321e+03
2.29673469e+03
2.03278560e+03
1.98247667e+03
2.30697347e+03
2.15999319e+03
1.25513806e+03
2.10841126e+03
1.79881461e+03
7.78067436e+02
2.03390307e+03
2.30722021e+03
1.49227093e+03
1.82923089e+03
2.19307240e+03
2.27847995e+03
1.75082921e+03
1.36318939e+03
1.04069754e+03
7.45494444e+02
1.24219728e+03
2.10965372e+03
1.56944884e+03
2.26684655e+03
2.27013678e+03
2.02495769e+03
1.43797421e+03
6.38424846e+02
1.87304859e+03
2.17657502e+03
1.91769907e+03
1.47210302e+03
1.91015108e+03
1.05385655e+03
2.38606262e+03
1.67199792e+03
2.43869603e+03
2.04100960e+03
2.42781714e+03
1.15641201e+03
0.00000000e+00
9.95096671e+02
5.76291687e+02
9.48080297e+02
8.48769030e+02
2.02959420e+03
2.08393363e+03
2.28557090e+03
1.72505977e+03
5.78853253e+01
3.94623375e+02
3.27638387e+02
1.04983038e+03
1.05576439e+03
1.07250172e+03
1.52380638e+03
2.23250059e+03
2.23154994e+03
1.77960111e+03
1.66151256e+03
1.07009104e+03
0.00000000e+00
0.00000000e+00
1.04616359e+03
1.98709591e+03
2.08505588e+03
1.57022884e+03
2.22366443e+03
1.19847480e+03
1.83386632e+03
2.06194727e+03
2.17045869e+03
2.16603246e+03
2.25251105e+03
2.17084588e+03
1.23163326e+03
1.44412043e+03
1.91145746e+03
2.18561576e+03
2.21932673e+03
2.39251564e+03
9.72398759e+02
9.77902746e+02
7.56066517e+02
1.00332615e+03
5.25273207e+02
1.46519087e+03
1.92365508e+03
1.91741202e+03
1.38617749e+03
0.00000000e+00
0.00000000e+00
0.00000000e+00
7.21471815e+02
0.00000000e+00
7.80728448e+02
0.00000000e+00
1.08834868e+03
1.00213122e+03
1.37055908e+03
9.35940594e+02
1.95762838e+03
7.14052290e+02
0.00000000e+00
0.00000000e+00
0.00000000e+00
0.00000000e+00
0.00000000e+00
3.17754771e+02
0.00000000e+00
0.00000000e+00
0.00000000e+00
0.00000000e+00
0.00000000e+00
0.00000000e+00
0.00000000e+00
7.88447106e+02
1.02343209e+03
8.26326254e+02
0.00000000e+00
6.99358570e+02
0.00000000e+00
0.00000000e+00
9.39077086e+02
8.65958428e+02
9.69036230e+02
1.12435018e+03
7.13833317e+02
2.03597381e+03
1.27058882e+03
1.33982280e+03