# vtk DataFile Version 3.0
MPS 3D Simulation Step 7000
ASCII
DATASET UNSTRUCTURED_GRID
POINTS 20213 double
-1.13139964e-03 3.49255429e-04 -8.41683955e-04
-1.05797790e-03 1.81319771e-04 -8.38678015e-04
-9.29027774e-04 2.98442233e-04 -1.04009706e-03
-8.77720005e-04 3.50498739e-04 -1.09913153e-03
-8.36450852e-04 1.95877829e-04 -1.06578465e-03
-8.24718745e-04 3.97728298e-04 -1.15432388e-03
-6.46625165e-04 2.45152071e-04 -1.20613946e-03
-5.01993317e-04 2.28586344e-04 -1.25924186e-03
-4.22187061e-04 1.32852996e-04 -1.14677024e-03
-3.86297214e-04 8.00400161e-04 -1.12697159e-03
-1.93835653e-04 8.98226807e-04 -1.23819561e-03
-2.70035735e-04 8.26018749e-04 -1.25029438e-03
-9.66212393e-05 6.64277730e-04 -1.18180152e-03
-7.39551124e-05 1.77877460e-04 -1.32650790e-03
2.52480405e-05 1.66200277e-04 -1.32436660e-03
5.23008547e-04 1.49356335e-04 -1.20587926e-03
2.28140263e-04 6.88379983e-04 -8.76340084e-04
5.20789829e-04 2.09705848e-04 -1.25604070e-03
6.10889754e-04 6.16861484e-04 -1.05462810e-03
8.01445549e-04 7.20016147e-04 -9.16239073e-04
1.06658000e-03 4.62712134e-04 -7.75138983e-04
-1.10602194e-03 2.64827251e-04 -8.39491555e-04
-1.05194738e-03 2.40302889e-04 -8.95177672e-04
-9.86826003e-04 3.38366001e-04 -1.00359576e-03
-8.91942431e-04 4.37681762e-04 -1.11030168e-03
-8.49865105e-04 5.73178366e-04 -1.15959818e-03
-9.53637520e-04 4.85096035e-04 -1.06332401e-03
-7.68429788e-04 4.39572399e-04 -1.20559809e-03
-5.36163917e-04 3.79424302e-04 -1.30522834e-03
-3.58372503e-04 2.16837366e-04 -1.30442379e-03
-3.73173130e-04 1.24545872e-04 -1.23005750e-03
-7.96675598e-05 2.53944053e-04 -1.36506651e-03
1.11841995e-04 1.72030045e-04 -1.32557269e-03
1.66892874e-04 3.65224740e-04 -1.39032866e-03
2.32774409e-04 3.16320761e-04 -1.37128916e-03
2.56545346e-04 2.43941553e-04 -1.34420996e-03
4.19743076e-04 1.15544505e-04 -1.21001778e-03
4.18355325e-04 2.47724181e-04 -1.30843039e-03
4.90402638e-04 6.32275430e-04 -1.22340349e-03
4.46097632e-04 1.81415652e-04 -1.26331817e-03
5.95823855e-04 1.91414829e-04 -1.20874505e-03
8.30724560e-04 1.14085816e-04 -1.01041641e-03
-1.07642474e-03 3.23323812e-04 -9.01466466e-04
-1.04121395e-03 3.79192486e-04 -9.57164815e-04
-1.04138888e-03 6.04569535e-04 -9.88779053e-04
-8.06775391e-04 3.13557362e-04 -1.14013356e-03
-9.43650931e-04 3.90833745e-04 -1.05648883e-03
-8.37187405e-04 4.83655066e-04 -1.16177373e-03
-5.82529981e-04 2.79175747e-04 -1.24960050e-03
-6.67283150e-04 3.21442557e-04 -1.23033104e-03
-4.38548599e-04 3.46949879e-04 -1.32883550e-03
-2.99909485e-04 2.57299997e-04 -1.33844054e-03
-1.12569658e-04 3.96723238e-04 -1.40070274e-03
-8.04716660e-06 2.22696721e-04 -1.35744074e-03
1.47523378e-04 4.43473098e-04 -1.39859263e-03
3.11278240e-04 3.16424807e-04 -1.35602111e-03
2.74811641e-04 1.75842776e-04 -1.30730918e-03
4.03865764e-04 4.08581224e-04 -1.35379629e-03
4.68250700e-04 3.35055712e-04 -1.32138420e-03
3.87767176e-04 3.23932887e-04 -1.33973753e-03
6.54633651e-04 2.61597442e-04 -1.21535061e-03
7.49635207e-04 1.89027865e-04 -1.13336775e-03
7.68914193e-04 1.31276792e-04 -1.07843052e-03
-1.15745117e-03 4.30255226e-04 -8.28166145e-04
-1.06147266e-03 4.68214455e-04 -9.49265685e-04
-1.02038577e-03 5.21916221e-04 -9.99592236e-04
-9.00277928e-04 5.23947592e-04 -1.11399612e-03
-7.82381476e-04 5.26770591e-04 -1.20667323e-03
-6.90757637e-04 3.96876037e-04 -1.24190318e-03
-6.03178444e-04 3.56925478e-04 -1.27200009e-03
-3.70371437e-04 3.01643393e-04 -1.33532178e-03
-2.87049270e-04 3.34644785e-04 -1.36640549e-03
-3.09722282e-04 1.60639542e-04 -1.28273919e-03
-4.24131040e-05 4.37318428e-04 -1.40914108e-03
-1.46781009e-04 1.51276513e-04 -1.29878206e-03
5.48538816e-06 3.70983521e-04 -1.40413995e-03
2.06052813e-05 2.90853955e-04 -1.38217478e-03
2.47044891e-04 4.03925701e-04 -1.38111984e-03
3.39067306e-04 2.38854564e-04 -1.32376485e-03
4.67877518e-04 4.96507950e-04 -1.34048544e-03
7.12162385e-04 3.29717257e-04 -1.20803453e-03
7.35210163e-04 2.59833098e-04 -1.17409343e-03
8.12007498e-04 2.44149032e-04 -1.11921628e-03
8.95292107e-04 2.32725981e-04 -1.04775519e-03
-1.17825712e-03 5.16249149e-04 -8.14294683e-04
-9.88838152e-04 6.43443398e-04 -1.03565070e-03
-1.00015995e-03 4.37382077e-04 -1.00885042e-03
-7.90607191e-04 6.12824696e-04 -1.20034175e-03
-6.38904705e-04 5.17670482e-04 -1.28163517e-03
-7.08108552e-04 4.79339447e-04 -1.24617585e-03
-3.54217697e-04 3.80836291e-04 -1.36134687e-03
-2.75171867e-04 4.20406243e-04 -1.38232978e-03
-2.09208898e-04 3.64251600e-04 -1.38518179e-03
-1.04708469e-04 4.90319329e-04 -1.40746975e-03
-2.63162374e-05 5.35985418e-04 -1.41072117e-03
-1.41185467e-04 3.09964850e-04 -1.37951709e-03
3.00508355e-05 4.79609462e-04 -1.41147076e-03
2.66763650e-04 5.66281374e-04 -1.38291530e-03
7.41212934e-05 4.11273747e-04 -1.40577287e-03
3.26561828e-04 4.00236481e-04 -1.36682143e-03
3.88950274e-04 4.90127231e-04 -1.36244249e-03
5.83368136e-04 2.64121142e-04 -1.25180229e-03
7.95552482e-04 3.15948613e-04 -1.15586159e-03
8.69809519e-04 2.93872013e-04 -1.09152324e-03
8.48450289e-04 3.69109497e-04 -1.12832432e-03
-1.16882132e-03 6.44982482e-04 -8.35956905e-04
-1.08414852e-03 5.51989388e-04 -9.38122166e-04
-9.36087182e-04 6.86961359e-04 -1.08024483e-03
-9.70649454e-04 5.64759184e-04 -1.05370605e-03
-7.17182463e-04 5.62542113e-04 -1.24781633e-03
-5.56660681e-04 4.61285461e-04 -1.30971704e-03
-4.70543969e-04 4.18325902e-04 -1.33469209e-03
-3.97463107e-04 4.44715631e-04 -1.35966411e-03
-1.81227095e-04 4.43594929e-04 -1.39828647e-03
-2.45478425e-04 4.99995900e-04 -1.39383402e-03
-1.72503293e-04 5.39393266e-04 -1.40489007e-03
-6.01332378e-05 3.29605423e-04 -1.39281667e-03
2.23640695e-04 4.82491006e-04 -1.38961822e-03
3.06947203e-04 4.86490247e-04 -1.37696981e-03
8.47308450e-05 2.37351424e-04 -1.36024456e-03
2.84473541e-04 7.32565720e-04 -1.37691044e-03
3.47231887e-04 5.70053942e-04 -1.37130543e-03
4.79236840e-04 4.15815476e-04 -1.33251368e-03
6.38197815e-04 3.38260672e-04 -1.24976746e-03
7.74554517e-04 3.88830765e-04 -1.18379882e-03
9.66115560e-04 4.18165128e-04 -1.02784296e-03
-1.14148820e-03 5.76445423e-04 -8.69819148e-04
-1.12584506e-03 4.91788650e-04 -8.81263504e-04
-9.96205407e-04 7.26734172e-04 -1.01825737e-03
-8.65585984e-04 6.53199662e-04 -1.14192091e-03
-7.24308785e-04 6.40973265e-04 -1.23725986e-03
-5.61353170e-04 5.42999727e-04 -1.31136063e-03
-4.83815552e-04 4.99498850e-04 -1.33726477e-03
-3.27791003e-04 4.90126341e-04 -1.37924655e-03
-4.05822635e-04 5.28905593e-04 -1.36116237e-03
-3.25003650e-04 5.74111114e-04 -1.38131186e-03
-9.79857623e-05 5.83859650e-04 -1.40705271e-03
4.61639632e-05 5.79712110e-04 -1.40607844e-03
1.03426422e-04 5.16029563e-04 -1.40363422e-03
1.78885640e-04 5.50672108e-04 -1.39465158e-03
2.13420586e-04 6.34492913e-04 -1.39065894e-03
5.47763173e-04 4.93064683e-04 -1.31070883e-03
5.13880730e-04 5.72979795e-04 -1.32690750e-03
5.53788747e-04 3.31022604e-04 -1.28712813e-03
5.52030530e-04 4.09772484e-04 -1.30401078e-03
8.97345731e-04 4.33775127e-04 -1.09833818e-03
8.76105917e-04 5.21163994e-04 -1.11576386e-03
-1.18777885e-03 7.16061857e-04 -7.94133295e-04
-1.09803077e-03 6.31531125e-04 -9.23412180e-04
-1.05080236e-03 6.87175208e-04 -9.68292340e-04
-9.17607689e-04 6.06139939e-04 -1.10243296e-03
-6.42453131e-04 5.99595433e-04 -1.27941722e-03
-4.85720099e-04 5.82145340e-04 -1.33716385e-03
-5.00098722e-04 6.64329271e-04 -1.32585505e-03
-4.07916250e-04 6.07524024e-04 -1.36008678e-03
-3.36444801e-04 6.56653530e-04 -1.37546283e-03
-2.45447221e-04 5.88024280e-04 -1.39496108e-03
-1.72905861e-04 6.30514025e-04 -1.40091636e-03
-2.79714523e-05 6.31098524e-04 -1.40540582e-03
4.56955382e-05 6.69009670e-04 -1.40172842e-03
1.24040195e-04 6.15247821e-04 -1.39856496e-03
2.08184153e-04 7.13784403e-04 -1.38971918e-03
4.30436858e-04 5.73096790e-04 -1.35493305e-03
3.84112525e-04 6.48048666e-04 -1.36404839e-03
5.92285157e-04 5.79069244e-04 -1.29214199e-03
6.25029884e-04 4.15259175e-04 -1.27104678e-03
8.32703660e-04 4.54648864e-04 -1.15051691e-03
8.48888681e-04 6.13589013e-04 -1.13714108e-03
-1.12777453e-03 6.91364322e-04 -8.82575159e-04
-1.08576772e-03 7.44283625e-04 -9.19660227e-04
-1.03337310e-03 7.86210246e-04 -9.60381468e-04
-7.39926642e-04 7.19760964e-04 -1.21414317e-03
-6.59919659e-04 6.81902340e-04 -1.26294871e-03
-5.71080377e-04 6.22300644e-04 -1.30713994e-03
-5.15886064e-04 7.42625017e-04 -1.30550423e-03
-4.23834241e-04 6.87406845e-04 -1.34805349e-03
-3.51829238e-04 7.35633195e-04 -1.36213113e-03
-2.59004840e-04 6.70275084e-04 -1.38898689e-03
-1.89388119e-04 7.14253167e-04 -1.39266622e-03
-1.02012675e-04 6.79035404e-04 -1.40081346e-03
-2.64199700e-05 7.20445651e-04 -1.39932596e-03
5.86446238e-05 7.55450053e-04 -1.39399520e-03
1.29364904e-04 7.00005208e-04 -1.39586023e-03
3.63329320e-04 7.26291047e-04 -1.35918051e-03
3.89221430e-04 8.04354336e-04 -1.33651208e-03
4.68894248e-04 6.49978378e-04 -1.34025695e-03
6.23160542e-04 5.01631062e-04 -1.27610455e-03
6.98896876e-04 4.08162726e-04 -1.23032220e-03
8.13587776e-04 5.42908754e-04 -1.16471568e-03
-1.14263818e-03 7.63909440e-04 -8.40930730e-04
-1.02929441e-03 8.62620908e-04 -9.26937853e-04
-9.32266344e-04 7.67897239e-04 -1.06287840e-03
-8.05782817e-04 6.93193846e-04 -1.18080183e-03
-7.39314311e-04 8.03030175e-04 -1.18960340e-03
-5.87651043e-04 7.01068380e-04 -1.28770221e-03
-5.97116435e-04 7.81692832e-04 -1.26419987e-03
-4.39566813e-04 7.64477652e-04 -1.32691001e-03
-3.67843743e-04 8.08504643e-04 -1.34088154e-03
-2.74321956e-04 7.51931742e-04 -1.37646224e-03
-2.05816973e-04 7.95927025e-04 -1.37727293e-03
-1.19525086e-04 7.60631160e-04 -1.39133538e-03
-4.98975624e-05 7.98369922e-04 -1.39061415e-03
2.24489280e-05 8.28254141e-04 -1.38482212e-03
1.41643205e-04 7.81826082e-04 -1.38719124e-03
3.05726776e-04 8.10175774e-04 -1.35668966e-03
4.69453616e-04 8.08290292e-04 -1.31209054e-03
4.42758165e-04 7.28266563e-04 -1.34001580e-03
6.71439858e-04 5.77393940e-04 -1.25096434e-03
7.63093279e-04 4.70725441e-04 -1.19642394e-03
8.17362567e-04 7.06746370e-04 -1.15191218e-03
-1.09060044e-03 8.19512438e-04 -8.82060847e-04
-1.00685885e-03 9.43440278e-04 -9.07050336e-04
[...]
POINT_DATA 20213
SCALARS pressure double 1
LOOKUP_TABLE default
1.65623459e+03
1.33600293e+03
0.00000000e+00
6.44309238e+02
0.00000000e+00
0.00000000e+00
0.00000000e+00
0.00000000e+00
5.31049185e+02
1.25604155e+03
1.32158540e+03
1.26915755e+03
1.26418474e+03
0.00000000e+00
8.65043816e+02
5.55484945e+02
1.93531102e+03
0.00000000e+00
1.02627265e+03
1.12691762e+03
8.46590309e+02
1.53274391e+03
0.00000000e+00
0.00000000e+00
0.00000000e+00
0.00000000e+00
9.15729487e+02
0.00000000e+00
0.00000000e+00
5.13569698e+02
0.00000000e+00
8.92670820e+02
8.83561730e+02
0.00000000e+00
0.00000000e+00
0.00000000e+00
5.23093670e+02
0.00000000e+00
7.87932047e+02
0.00000000e+00
0.00000000e+00
0.00000000e+00
1.31277803e+03
1.16793552e+03
0.00000000e+00
5.83175090e+02
0.00000000e+00
0.00000000e+00
0.00000000e+00
0.00000000e+00
0.00000000e+00
6.18272036e+02
7.39709951e+02
9.28061878e+02
0.00000000e+00
0.00000000e+00
5.35520961e+02
0.00000000e+00
0.00000000e+00
0.00000000e+00
5.65833795e+02
0.00000000e+00
0.00000000e+00
1.64585866e+03
0.00000000e+00
0.00000000e+00
6.44785121e+02
0.00000000e+00
0.00000000e+00
0.00000000e+00
0.00000000e+00
0.00000000e+00
6.29363211e+02
7.86097772e+02
7.41356557e+02
9.32226153e+02
1.00164820e+03
0.00000000e+00
0.00000000e+00
0.00000000e+00
6.66920695e+02
0.00000000e+00
0.00000000e+00
0.00000000e+00
1.54751056e+03
0.00000000e+00
1.03545092e+03
0.00000000e+00
0.00000000e+00
0.00000000e+00
0.00000000e+00
0.00000000e+00
0.00000000e+00
0.00000000e+00
0.00000000e+00
0.00000000e+00
0.00000000e+00
7.98282869e+02
0.00000000e+00
0.00000000e+00
0.00000000e+00
0.00000000e+00
0.00000000e+00
0.00000000e+00
0.00000000e+00
0.00000000e+00
0.00000000e+00
0.00000000e+00
8.47245756e+02
0.00000000e+00
0.00000000e+00
0.00000000e+00
0.00000000e+00
0.00000000e+00
0.00000000e+00
0.00000000e+00
9.40362488e+02
0.00000000e+00
0.00000000e+00
8.42948569e+02
9.12652122e+02
7.52996068e+02
4.56439894e+02
0.00000000e+00
0.00000000e+00
9.03425576e+02
1.16474185e+03
0.00000000e+00
0.00000000e+00
0.00000000e+00
0.00000000e+00
5.03474434e+02
0.00000000e+00
0.00000000e+00
3.70281552e+02
0.00000000e+00
0.00000000e+00
0.00000000e+00
8.28033954e+02
7.98623611e+02
9.06464343e+02
0.00000000e+00
0.00000000e+00
0.00000000e+00
0.00000000e+00
0.00000000e+00
0.00000000e+00
0.00000000e+00
0.00000000e+00
0.00000000e+00
7.83469104e+02
0.00000000e+00
0.00000000e+00
0.00000000e+00
0.00000000e+00
0.00000000e+00
0.00000000e+00
6.42515324e+02
7.13449498e+02
0.00000000e+00
7.51615728e+02
9.34210121e+02
0.00000000e+00
0.00000000e+00
6.09594241e+02
0.00000000e+00
0.00000000e+00
0.00000000e+00
9.84509997e+02
0.00000000e+00
0.00000000e+00
0.00000000e+00
0.00000000e+00
0.00000000e+00
0.00000000e+00
0.00000000e+00
8.25748238e+02
7.55225705e+02
0.00000000e+00
0.00000000e+00
9.71166897e+02
1.02278703e+03
0.00000000e+00
8.56076705e+02
7.50695415e+02
0.00000000e+00
0.00000000e+00
6.89860063e+02
0.00000000e+00
8.45852674e+02
1.07760236e+03
9.99860892e+02
0.00000000e+00
0.00000000e+00
0.00000000e+00
0.00000000e+00
8.37496348e+02
1.10756182e+03
0.00000000e+00
0.00000000e+00
9.87143600e+02
0.00000000e+00
1.09887644e+03
1.02062043e+03
8.37530502e+02
5.46436505e+02
0.00000000e+00
7.16673814e+02
8.23121906e+02
0.00000000e+00
9.52331573e+02
0.00000000e+00
7.66538530e+02
0.00000000e+00
0.00000000e+00
0.00000000e+00
8.26714871e+02
1.02050732e+03
1.22795953e+03
1.11395950e+03
1.35236756e+03
0.00000000e+00
0.00000000e+00
1.04646521e+03
1.01733765e+03
0.00000000e+00
0.00000000e+00
0.00000000e+00
0.00000000e+00
0.00000000e+00
0.00000000e+00
7.98238097e+02
0.00000000e+00
1.45173616e+03
1.24787763e+03
0.00000000e+00
1.07930084e+03
8.64613836e+02
0.00000000e+00
0.00000000e+00
1.26162987e+03
1.25386430e+03
1.10538037e+03
1.04990404e+03
0.00000000e+00
0.00000000e+00
7.75762599e+02
0.00000000e+00
0.00000000e+00
0.00000000e+00
0.00000000e+00
0.00000000e+00
1.02209571e+03
1.16719786e+03
1.60112575e+03
1.47735993e+03
1.37183540e+03
1.33230606e+03
1.06888864e+03
0.00000000e+00
0.00000000e+00
1.26722851e+03
1.07429040e+03
1.04040249e+03
1.09901863e+03
8.94480616e+02
0.00000000e+00
6.60288873e+02
0.00000000e+00
0.00000000e+00
0.00000000e+00
0.00000000e+00
0.00000000e+00
1.40179325e+03
1.31974784e+03
1.46953054e+03
1.54053675e+03
1.36785375e+03
1.16539479e+03
0.00000000e+00
1.18150369e+03
1.30677058e+03
1.22193699e+03
0.00000000e+00
0.00000000e+00
9.95288991e+02
0.00000000e+00
0.00000000e+00
9.35161171e+02
0.00000000e+00
0.00000000e+00
0.00000000e+00
0.00000000e+00
0.00000000e+00
1.34684446e+03
1.21310830e+03
1.54098630e+03
1.30920203e+03
1.43792177e+03
0.00000000e+00
0.00000000e+00
1.43943411e+03
1.29817475e+03
1.40411465e+03
0.00000000e+00
9.42276067e+02
8.54873287e+02
0.00000000e+00
6.79273495e+02
7.88169137e+02
6.34613241e+02
5.45561001e+02
0.00000000e+00
4.85142963e+02
6.70505343e+02
1.24987435e+03
1.36592868e+03
0.00000000e+00
0.00000000e+00
0.00000000e+00
0.00000000e+00
1.23943190e+03
1.27279893e+03
1.46206707e+03
1.47627513e+03
1.44799414e+03
1.08823796e+03
0.00000000e+00
0.00000000e+00
0.00000000e+00
6.77437603e+02
6.33134697e+02
0.00000000e+00
0.00000000e+00
0.00000000e+00
0.00000000e+00
1.11371472e+03
0.00000000e+00
0.00000000e+00
1.22759354e+03
1.22024978e+03
1.25373406e+03
0.00000000e+00
1.30874465e+03
1.31592654e+03
1.32053172e+03
1.25633616e+03
1.11677691e+03
6.92502423e+02
0.00000000e+00
0.00000000e+00
0.00000000e+00
0.00000000e+00
4.56019991e+02
0.00000000e+00
0.00000000e+00
6.28803976e+02
1.11323630e+03
8.48247001e+02
0.00000000e+00
9.93504993e+02
1.06546747e+03
1.11033376e+03
1.04090721e+03
1.17478604e+03
0.00000000e+00
1.25843298e+03
1.04037327e+03
0.00000000e+00
0.00000000e+00
0.00000000e+00
0.00000000e+00
0.00000000e+00
0.00000000e+00
0.00000000e+00
5.85691573e+02
5.87761293e+02
0.00000000e+00
8.01028651e+02
7.21463524e+02
0.00000000e+00
0.00000000e+00
0.00000000e+00
9.38891979e+02
1.15917623e+03
0.00000000e+00
1.02876598e+03
1.16063505e+03
0.00000000e+00
0.00000000e+00
0.00000000e+00
0.00000000e+00
0.00000000e+00
0.00000000e+00
0.00000000e+00
5.59643757e+02
0.00000000e+00
0.00000000e+00
6.34406690e+02
0.00000000e+00
0.00000000e+00
0.00000000e+00
7.26212723e+02
0.00000000e+00
8.14816931e+02
0.00000000e+00
0.00000000e+00
8.24050186e+02
0.00000000e+00
0.00000000e+00
5.30581730e+02
0.00000000e+00
0.00000000e+00
0.00000000e+00
0.00000000e+00
4.56381736e+02
0.00000000e+00
0.00000000e+00
0.00000000e+00
0.00000000e+00
0.00000000e+00
4.93503399e+02
0.00000000e+00
6.88642837e+02
7.99339922e+02
0.00000000e+00
0.00000000e+00
0.00000000e+00
0.00000000e+00
0.00000000e+00
1.35954387e+02
0.00000000e+00
0.00000000e+00
0.00000000e+00
3.00278920e+02
3.88091074e+02
0.00000000e+00
0.00000000e+00
0.00000000e+00
0.00000000e+00
0.00000000e+00
1.72026835e+03
1.95314822e+03
1.41750627e+03
1.12611014e+03
0.00000000e+00
0.00000000e+00
1.33693058e+03
0.00000000e+00
0.00000000e+00
1.42090879e+03
1.56961938e+03
1.57046884e+03
1.06813993e+03
8.31497874e+02
7.72497682e+02
1.66742091e+03
3.80853455e+02
9.65452287e+02
1.08582139e+03
6.55398209e+02
0.00000000e+00
2.03254648e+03
1.15572349e+03
1.21959900e+03
1.95955821e+03
1.42777297e+03
1.54281290e+03
1.43963741e+03
1.46249460e+03
1.34279755e+03
1.72681617e+03
2.31367174e+03
2.28743443e+03
1.00338972e+03
2.34085380e+03
2.10754985e+03
1.35779789e+03
1.30463713e+03
1.14410176e+03
1.38766129e+03
1.10611878e+03
0.00000000e+00
0.00000000e+00
1.36068621e+03
1.20544151e+03
1.76684903e+03
7.92247872e+02
8.61046214e+02
1.91397053e+03
0.00000000e+00
0.00000000e+00
5.90840224e+02
0.00000000e+00
7.91731698e+02
7.16728365e+02
0.00000000e+00
2.15472022e+03
5.99289586e+02
1.04242042e+03
8.67920630e+02
1.36233832e+03
1.02177721e+03
0.00000000e+00
2.01006849e+03
1.24763905e+03
2.28564655e+03
7.62877446e+02
9.40780658e+02
1.96537426e+03
1.32148626e+03
1.47481053e+03
7.08129804e+02
9.65085947e+02
1.01864293e+03
1.47735456e+03
1.81743693e+03
1.44756922e+03
1.10075486e+03
7.22076523e+02
1.66236626e+03
1.19736651e+03
8.87603121e+02
1.96531300e+03
1.01213531e+03
1.81513609e+03
1.26118948e+03
1.78114676e+03
1.77422060e+03
2.29693309e+03
1.98884640e+03
1.79553330e+03
1.37583712e+03
1.31161784e+03
1.90989464e+03
2.06831144e+03
2.21807912e+03
9.76130686e+02
1.44037540e+03
8.20955823e+02
2.13953443e+03
7.49224678e+02
9.33857196e+02
1.32010181e+03
8.29003925e+02
9.50198768e+02
2.07070181e+03
2.30062656e+03
1.20065664e+03
1.35473918e+03
2.18561892e+03
0.00000000e+00
2.22767564e+03
1.43063980e+03
1.45178739e+03
1.20399101e+03
2.25270390e+03
9.24814744e+02
1.81083212e+03
1.80546622e+03
1.09403186e+03
0.00000000e+00
1.06764199e+03
1.01988409e+03
6.77241783e+02
1.48028675e+03
9.05965119e+02
1.63873251e+03
1.40178802e+03
1.47356268e+03
1.62472797e+03
1.65629211e+03
1.19006142e+03
1.79468598e+03
1.43829229e+03
1.42421390e+03
2.04685371e+03
1.08383596e+03
1.70797862e+03
2.31994741e+03
1.45505541e+03
1.37014962e+03
1.55477230e+03
1.23555739e+03
6.78707743e+02
6.93970531e+02
7.83244664e+02
8.68653275e+02
1.31551277e+03
9.75219038e+02
0.00000000e+00
1.40344036e+03
1.48997214e+03
1.79764911e+03
1.46642284e+03
2.07205010e+03
1.35000725e+03
1.72752629e+03
1.37527173e+03
1.34409437e+03
2.23438294e+03
1.44550902e+03
1.92836154e+03
1.93082249e+03
8.06410884e+02
8.03204140e+02
7.19877382e+02
8.33187728e+02
9.05923470e+02
1.26298017e+03
1.95946963e+03
1.14422344e+03
9.43256793e+02
1.43240004e+03
1.68841393e+03
1.38548131e+03
1.76220188e+03
2.08741203e+03
9.63830970e+02
1.87825432e+03
2.32570825e+03
1.19828419e+03
1.77879718e+03
5.64018034e+02
6.54849612e+02
2.20795032e+03
2.11666154e+03
7.49024936e+02
1.18587430e+03
0.00000000e+00
1.07459921e+03
2.07293700e+03
9.85740385e+02
1.38984431e+03
1.42876338e+03
1.37433206e+03
1.34270979e+03
1.14419197e+03
1.82781951e+03
1.38511646e+03
1.50351388e+03
1.42907602e+03
2.31360715e+03
1.11121191e+03
6.45980948e+02
9.08973720e+02
7.28750997e+02
1.04159840e+03
0.00000000e+00
9.74609321e+02
0.00000000e+00
0.00000000e+00
1.42045699e+03
9.96969596e+02
1.19292049e+03
1.17619863e+03
1.28800391e+03
1.28806795e+03
1.70661429e+03
1.46793720e+03
1.84335573e+03
1.17835421e+03
2.09130161e+03
9.04290665e+02
2.05106101e+03
5.26037530e+02
6.93941121e+02
1.62684840e+03
2.09228264e+03
5.84960387e+02
1.38474496e+03
0.00000000e+00
0.00000000e+00
1.15297361e+03
1.22887584e+03
8.00270258e+02
9.60932022e+02
1.20901113e+03
1.41182243e+03
1.16636375e+03
2.34583582e+03
1.41547158e+03
2.21431053e+03
1.40770483e+03
1.68270152e+03
7.88374444e+02
1.67701940e+03
6.22254012e+02
7.44211935e+02
8.60617332e+02
0.00000000e+00
1.10254854e+03
0.00000000e+00
9.39001433e+02
1.45831718e+03
1.12910749e+03
1.75851585e+03
1.73103943e+03
1.03051270e+03
1.07218519e+03
1.60249784e+03
2.15542766e+03
1.01327887e+03
1.27321149e+03
2.26961827e+03
9.08949874e+02
2.34558811e+03
8.74419950e+02
1.03487791e+03
9.87526612e+02
2.12710581e+03
4.88352911e+02
2.01203443e+03
4.58158977e+02
0.00000000e+00
7.68498183e+02
1.36194013e+03
1.43715179e+03
8.93330344e+02
9.82173296e+02
1.25971547e+03
1.36406846e+03
1.88726817e+03
8.92911381e+02
1.22577126e+03
8.84365675e+02
9.95692672e+02
1.10187744e+03
6.01051631e+02
1.10072027e+03
1.21958331e+03
1.27481469e+03
0.00000000e+00
8.07636031e+02
0.00000000e+00
1.16175045e+03
8.12697925e+02
7.83192317e+02
1.41586107e+03
1.37780212e+03
1.07886531e+03
1.74633669e+03
2.27689719e+03
1.95921953e+03
5.97659173e+02
2.14637520e+03
6.32092535e+02
8.23779230e+02
8.57756284e+02
1.37506110e+03
1.28751516e+03
1.91702816e+03
8.23466188e+02
1.20809695e+03
9.33714969e+02
0.00000000e+00
1.11514084e+03
9.84479084e+02
1.06957262e+03
8.82450787e+02
8.70935861e+02
1.20416673e+03
9.97245779e+02
7.42181697e+02
1.27195505e+03
1.05036851e+03
8.61415702e+02
1.74769345e+03
8.24783237e+02
6.06333983e+02
6.57355244e+02
7.13977689e+02
1.64088402e+03
1.19207305e+03
1.25775461e+03
9.68261775e+02
0.00000000e+00
0.00000000e+00
1.36419413e+03
1.58136314e+03
7.92797916e+02
2.12711388e+03
6.56882002e+02
7.62733455e+02
1.10094502e+03
1.85724746e+03
6.81183704e+02
5.58427140e+02
4.99550237e+02
1.29332117e+03
8.61167568e+02
2.27331796e+03
9.64668597e+02
2.24486779e+03
1.11921690e+03
1.50669315e+03
8.39578911e+02
8.66783586e+02
0.00000000e+00
1.16163110e+03
6.83399470e+02
1.29762772e+03
6.96620013e+02
1.77483989e+03
9.08574560e+02
4.66585922e+02
1.42394376e+03
4.49467509e+02
7.57217136e+02
4.69923672e+02
2.13319181e+03
1.77342354e+03
9.15178199e+02
7.32534819e+02
9.67867311e+02
1.34147000e+03
8.40548156e+02
7.47323591e+02
0.00000000e+00
0.00000000e+00
1.01973376e+03
8.86541514e+02
9.30900054e+02
1.47864958e+03
1.26085469e+03
5.72380976e+02
1.27672765e+03
9.49565984e+02
0.00000000e+00
0.00000000e+00
0.00000000e+00
5.81812480e+02
0.00000000e+00
6.45565441e+02
8.60976914e+02
9.84085265e+02
5.15922748e+02
6.97198440e+02
1.19802388e+03
0.00000000e+00
0.00000000e+00
2.05405995e+03
9.62367721e+02
1.39539208e+03
6.91908683e+02
1.42573797e+03
7.75912283e+02
4.40427152e+02
7.63106649e+02
3.66768532e+02
1.81280102e+03
7.33167366e+02
2.00803416e+03
3.99639749e+02
3.17748407e+02
4.54409778e+02
3.18223103e+02
8.76025991e+02
9.89520390e+02
1.83268600e+03
9.40167726e+02
0.00000000e+00
0.00000000e+00
5.79903150e+02
0.00000000e+00
0.00000000e+00
0.00000000e+00
8.55504373e+02
0.00000000e+00
0.00000000e+00
0.00000000e+00
0.00000000e+00
0.00000000e+00
0.00000000e+00
0.00000000e+00
0.00000000e+00
0.00000000e+00
0.00000000e+00
0.00000000e+00
0.00000000e+00
0.00000000e+00
1.02101639e+03
1.32056497e+03
0.00000000e+00
1.63514368e+03
0.00000000e+00
1.49517037e+03
8.62947601e+02
0.00000000e+00
0.00000000e+00
0.00000000e+00
1.45911837e+03
1.37598153e+03
1.38851479e+03
8.76526795e+02
8.18192701e+02
6.73338002e+02
5.64892584e+02
5.96449897e+02
8.05140799e+02
6.79042886e+02
8.49197822e+02
0.00000000e+00
1.40302821e+03
1.65183365e+03
1.21258625e+03
1.09868889e+03
6.84490743e+02
1.37757713e+03
1.46663628e+03
1.30362693e+03
2.05262211e+03
0.00000000e+00
1.49151523e+03
1.41790564e+03
1.32941589e+03
0.00000000e+00
9.31926995e+02
1.58816761e+03
2.14444050e+03
1.83421872e+03
1.24641677e+03
8.76807668e+02
8.10926727e+02
2.07578344e+03
1.06209027e+03
1.53103239e+03
2.27598314e+03
2.07193172e+03
2.09391147e+03
2.30469168e+03
1.46862519e+03
1.68168253e+03
1.33250553e+03
8.33319001e+02
1.08261555e+03
1.17207317e+03
1.37474353e+03
1.30669496e+03
2.16702005e+03
9.58115840e+02
9.05457773e+02
1.08943587e+03
1.07151174e+03
0.00000000e+00
1.88755727e+03
9.84510169e+02
1.98977755e+03
1.24113973e+03
2.16101372e+03
4.60986792e+02
1.53714362e+03
1.74737493e+03
1.12901488e+03
1.47611875e+03
1.47208907e+03
1.74292847e+03
1.59704877e+03
0.00000000e+00
1.23359170e+03
1.15190280e+03
1.01267604e+03
1.72330925e+03
1.05573423e+03
1.04640417e+03
8.46103361e+02
1.58272454e+03
1.61013708e+03
1.09203156e+03
1.49039751e+03
1.53562000e+03
2.19204026e+03
8.13342599e+02
1.52182567e+03
5.43081261e+02
1.89208994e+03
1.15378557e+03
7.83044274e+02
6.64394216e+02
1.51904949e+03
9.36798707e+02
1.01672056e+03
1.25332566e+03
9.32131662e+02
2.05478727e+03
1.48004547e+03
9.71767557e+02
1.45081782e+03
1.44067960e+03
1.60176583e+03
1.42077210e+03
2.20982967e+03
1.08262320e+03
1.90343968e+03
1.73104686e+03
1.04805147e+03
1.25913822e+03
8.23106943e+02
2.17536870e+03
9.07862390e+02
8.22709108e+02
1.64374746e+03
1.07539370e+03
1.26389543e+03
8.74586581e+02
1.01976141e+03
1.10210012e+03
9.56363671e+02
0.00000000e+00
1.43402075e+03
1.78599564e+03
9.88861801e+02
1.82733196e+03
2.14240070e+03
1.47896755e+03
1.66438888e+03
8.79848995e+02
2.20906528e+03
1.85229539e+03
9.11263575e+02
9.72616989e+02
5.62829958e+02
2.02109754e+03
1.83396521e+03
1.59475548e+03
2.20893602e+03
1.00551639e+03
9.85328370e+02
9.41655700e+02
1.91283921e+03
0.00000000e+00
2.27467602e+03
2.07117236e+03
1.85395257e+03
1.80351068e+03
1.28290827e+03
9.86723314e+02
4.77542616e+02
1.67526086e+03
2.28832794e+03
1.57286504e+03
1.60196452e+03
2.26985709e+03
2.27595152e+03
9.18289414e+02
2.15958146e+03
2.23622395e+03
1.96594757e+03
0.00000000e+00
0.00000000e+00
1.40765976e+03
9.71026067e+02
1.04396550e+03
1.10472701e+03
1.86791028e+03
1.44246047e+03
2.33523282e+03
8.51606401e+02
1.38780562e+03
1.89363887e+03
2.18836045e+03
1.65230113e+03
9.33419065e+02
0.00000000e+00
2.03804425e+03
9.38957560e+02
2.20940833e+03
1.67370548e+03
1.21647316e+03
9.52027931e+02
8.46059703e+02
0.00000000e+00
8.29125182e+02
1.92003689e+03
1.04837128e+03
2.32955453e+03
2.35488776e+03
2.18880975e+03
8.02822581e+02
6.93169884e+02
1.66746166e+03
6.32590875e+02
2.05661052e+03
1.25296327e+03
8.69996730e+02
1.70848520e+03
9.23409998e+02
1.36819665e+03
1.05055011e+03
8.93749368e+02
8.72770710e+02
8.15710484e+02
0.00000000e+00
9.08659726e+02
1.63231476e+03
8.39169786e+02
1.89109168e+03
2.07322780e+03
1.61874229e+03
1.35219951e+03
2.28330020e+03
2.21508679e+03
1.39451258e+03
2.34044326e+03
6.95478303e+02
2.29347861e+03
1.90573251e+03
1.76536989e+03
1.40306726e+03
1.23563575e+03
1.08862293e+03
9.09757173e+02
8.22144940e+02
0.00000000e+00
0.00000000e+00
2.26798858e+03
1.18593625e+03
1.79788391e+03
8.97194069e+02
1.41265413e+03
5.24096321e+02
2.32840359e+03
1.81876747e+03
1.58973837e+03
1.42009878e+03
1.08134396e+03
1.85845355e+03
1.31824694e+03
1.28392006e+03
1.11112055e+03
1.38276876e+03
2.05852116e+03
9.62104420e+02
0.00000000e+00
0.00000000e+00
0.00000000e+00
1.61543247e+03
1.12580324e+03
1.98213557e+03
1.21619481e+03
2.16902413e+03
2.23346000e+03
2.01049474e+03
2.22922504e+03
1.25994663e+03
2.18993046e+03
8.50202654e+02
2.19659544e+03
9.06177638e+02
2.15969371e+03
2.19159427e+03
1.27083004e+03
2.03066251e+03
7.60546220e+02
0.00000000e+00
9.40040028e+02
0.00000000e+00
2.28090193e+03
1.19130842e+03
1.99372602e+03
1.34392117e+03
1.58652231e+03
1.06715313e+03
1.56079588e+03
1.98575050e+03
7.65292113e+02
2.31886151e+03
2.26250792e+03
2.28648902e+03
7.21631766e+02
9.70551378e+02
2.20930859e+03
1.53533544e+03
1.27532551e+03
0.00000000e+00
0.00000000e+00
7.17061734e+02
1.64883194e+03
1.75638402e+03
1.74658601e+03
2.17374109e+03
2.05324373e+03
1.31749295e+03
9.52899471e+02
2.13226356e+03
1.86534634e+03
1.40647594e+03
2.09915470e+03
1.72670777e+03
5.57340187e+02
2.22802282e+03
2.17149026e+03
7.20400410e+02
1.66872564e+03
2.08051915e+03
1.02808419e+03
0.00000000e+00
9.25275447e+02
1.35542062e+03
2.16056216e+03
1.81418567e+03
1.86772770e+03
1.00841804e+03
2.25915396e+03
1.43358931e+03
2.32569664e+03
1.79684472e+03
9.12891305e+02
1.77416695e+03
2.09873817e+03
1.19340988e+03
1.81405570e+03
2.06547802e+03
1.85018097e+03
1.64391670e+03
1.30543705e+03
9.86411042e+02
0.00000000e+00
0.00000000e+00
1.98229848e+03
9.41923353e+02
2.24608869e+03
9.84033548e+02
1.47307141e+03
9.06102277e+02
9.89246506e+02
1.82381602e+03
2.27588054e+03
1.83360814e+03
1.39187247e+03
1.12069003e+03
7.91603673e+02
2.00200072e+03
8.26873514e+02
2.11761347e+03
2.15388319e+03
1.82619830e+03
1.24695241e+03
0.00000000e+00
5.61066273e+02
1.06110708e+03
1.26821948e+03
9.72627647e+02
9.09523138e+02
2.18867561e+03
2.15017997e+03
1.90678675e+03
8.20140699e+02
3.04193676e+02
4.71855028e+02
4.84155492e+02
5.87587320e+02
8.73282478e+02
1.30280265e+03
2.22726786e+03
1.97055597e+03
1.65891226e+03
1.43517505e+03
1.02133170e+03
8.49778955e+02
5.41359086e+02
1.14283113e+03
1.98745990e+03
1.93608359e+03
1.43948818e+03
1.80852968e+03
1.42280210e+03
2.11513701e+03
1.98654075e+03
1.28940282e+03
1.02815473e+03
2.29176256e+03
1.84534023e+03
1.41650096e+03
1.53682362e+03
2.02133111e+03
2.05570755e+03
2.21328686e+03
1.84669886e+03
1.18482057e+03
9.67716798e+02
0.00000000e+00
1.21558003e+03
8.18227796e+02
1.77132141e+03
2.17960552e+03
1.86901848e+03
1.47782732e+03
0.00000000e+00
0.00000000e+00
0.00000000e+00
0.00000000e+00
0.00000000e+00
0.00000000e+00
0.00000000e+00
7.03663449e+02
4.14659758e+02
1.39385421e+03
5.10995813e+02
1.80051271e+03
9.87743799e+02
9.52815232e+02
0.00000000e+00
5.79672464e+02
0.00000000e+00
0.00000000e+00
5.14526802e+02
0.00000000e+00
5.71228828e+02
6.98121958e+02
4.40115103e+02
0.00000000e+00
0.00000000e+00
0.00000000e+00
0.00000000e+00
0.00000000e+00
0.00000000e+00
4.01865107e+02
0.00000000e+00
0.00000000e+00
0.00000000e+00
0.00000000e+00
1.08272235e+03
1.15080091e+03
9.64648728e+02
1.09966577e+03
2.31862630e+03
1.46930447e+03
1.52412447e+03