# vtk DataFile Version 3.0
MPS 3D Simulation Step 5200
ASCII
DATASET UNSTRUCTURED_GRID
POINTS 20213 double
-1.08369800e-03 3.53236016e-04 -9.62459444e-04
-1.00173227e-03 2.16874312e-04 -9.85853515e-04
-8.93172620e-04 2.34365675e-04 -1.08989255e-03
-8.60754519e-04 2.92750738e-04 -1.14480883e-03
-7.79127527e-04 1.53898496e-04 -1.12253206e-03
-7.50801318e-04 3.55446781e-04 -1.24139798e-03
-5.77496841e-04 1.73480377e-04 -1.24222860e-03
-4.72762691e-04 2.61762301e-04 -1.33866369e-03
-3.40840130e-04 1.49628949e-04 -1.31846555e-03
-3.53655754e-04 7.33004281e-04 -1.14843095e-03
-1.30067028e-04 6.99190780e-04 -1.33363304e-03
-2.29297723e-04 6.35833074e-04 -1.32574219e-03
-7.45947979e-05 3.47516226e-04 -1.32903382e-03
6.77293112e-05 1.45061987e-04 -1.35265617e-03
1.58191227e-04 1.16543037e-04 -1.31766806e-03
5.54750145e-04 1.21248658e-04 -1.24146599e-03
4.28419795e-04 5.44538170e-04 -1.10133706e-03
6.45748678e-04 1.22304021e-04 -1.18669617e-03
7.54562844e-04 3.38533546e-04 -1.07846936e-03
8.85338118e-04 5.33167295e-04 -9.45184079e-04
1.05137945e-03 3.11046614e-04 -8.44482353e-04
-1.03583859e-03 2.92246330e-04 -9.88976454e-04
-9.64869940e-04 2.69999194e-04 -1.04512792e-03
-9.29660393e-04 3.17781732e-04 -1.09725410e-03
-8.19471104e-04 3.62275461e-04 -1.19710355e-03
-7.65646688e-04 5.23746636e-04 -1.25505847e-03
-8.45540278e-04 4.43984839e-04 -1.19274610e-03
-6.93691375e-04 4.03186192e-04 -1.28377996e-03
-4.78791427e-04 3.43123431e-04 -1.36493770e-03
-2.94334528e-04 1.95604499e-04 -1.35968394e-03
-2.36292463e-04 1.42324179e-04 -1.32673709e-03
3.76874998e-05 2.07587050e-04 -1.39290511e-03
1.39423451e-04 1.79918063e-04 -1.37423569e-03
2.87168777e-04 2.24870310e-04 -1.37690371e-03
3.40411638e-04 2.89396704e-04 -1.39001843e-03
3.79832408e-04 2.27439500e-04 -1.36130629e-03
4.68198333e-04 1.21243070e-04 -1.27912662e-03
5.31504012e-04 1.84608462e-04 -1.29036068e-03
5.82733939e-04 2.31941783e-04 -1.16494069e-03
6.25076690e-04 1.76427114e-04 -1.24143524e-03
7.91123057e-04 1.81032663e-04 -1.13155697e-03
9.78854385e-04 1.38664211e-04 -9.84057319e-04
-1.00270820e-03 3.48057563e-04 -1.03917293e-03
-9.58966617e-04 3.98401926e-04 -1.09372560e-03
-9.67235148e-04 5.88530171e-04 -1.10248227e-03
-7.86429393e-04 2.88660144e-04 -1.19671130e-03
-8.86366749e-04 3.72830021e-04 -1.15069274e-03
-7.71488578e-04 4.38787299e-04 -1.24154549e-03
-5.45797000e-04 3.02171008e-04 -1.32542904e-03
-6.14907685e-04 2.56711848e-04 -1.27551493e-03
-3.37608665e-04 3.37264417e-04 -1.40401034e-03
-2.20604292e-04 2.22502333e-04 -1.38228649e-03
-6.55663313e-05 3.92238574e-04 -1.44469540e-03
1.04011730e-04 2.41230944e-04 -1.40852970e-03
2.13123908e-04 3.64903867e-04 -1.43139042e-03
4.45244549e-04 2.79202429e-04 -1.36025751e-03
3.22541437e-04 1.64325532e-04 -1.33848923e-03
4.95279650e-04 3.42351753e-04 -1.35693796e-03
5.95950767e-04 2.36571600e-04 -1.28116912e-03
5.17835149e-04 2.57433552e-04 -1.32490230e-03
7.60736323e-04 2.43963347e-04 -1.18494810e-03
8.72670225e-04 1.95567610e-04 -1.08881448e-03
9.00317893e-04 1.25151274e-04 -1.03261036e-03
-1.10972469e-03 4.34711663e-04 -9.46148882e-04
-1.00729784e-03 4.58569516e-04 -1.06033469e-03
-9.62525428e-04 5.09279943e-04 -1.10780512e-03
-8.32998575e-04 5.20504980e-04 -1.20944550e-03
-7.01827703e-04 4.80009248e-04 -1.29044067e-03
-6.74219141e-04 3.24538221e-04 -1.27624019e-03
-6.09246085e-04 3.47338521e-04 -1.31314826e-03
-2.89856474e-04 2.73577651e-04 -1.39415686e-03
-2.25472298e-04 3.16724067e-04 -1.41636720e-03
-1.61286552e-04 1.71656959e-04 -1.35644216e-03
2.93222202e-05 4.06095565e-04 -1.44677121e-03
-2.87660062e-05 1.66180573e-04 -1.36169317e-03
6.00382699e-05 3.04616944e-04 -1.42977540e-03
1.55862528e-04 3.06501286e-04 -1.42432940e-03
3.12073235e-04 3.61462886e-04 -1.41306214e-03
4.50169181e-04 1.99393775e-04 -1.32630452e-03
5.53311954e-04 3.98509841e-04 -1.33969148e-03
8.06455531e-04 3.18537752e-04 -1.17939048e-03
8.35675626e-04 2.51150882e-04 -1.13816121e-03
9.16296210e-04 2.61352251e-04 -1.08854814e-03
9.91602326e-04 2.69304487e-04 -1.03382916e-03
-1.12842074e-03 5.14685912e-04 -9.27593920e-04
-9.09460163e-04 6.19526135e-04 -1.14787268e-03
-9.13621947e-04 4.52427871e-04 -1.14252887e-03
-7.03023491e-04 5.66321082e-04 -1.29221012e-03
-5.57845468e-04 4.83439814e-04 -1.35861420e-03
-6.21673781e-04 4.30606094e-04 -1.32450262e-03
-2.71967890e-04 3.81228517e-04 -1.42556081e-03
-2.02535420e-04 4.19064275e-04 -1.44024842e-03
-1.50150108e-04 3.56135435e-04 -1.43369621e-03
-3.44813033e-05 4.70120475e-04 -1.45333881e-03
4.17414437e-05 5.08932315e-04 -1.45512172e-03
-8.76054449e-05 3.01936240e-04 -1.42401557e-03
1.00561209e-04 4.55107466e-04 -1.45096486e-03
3.19565274e-04 4.86169712e-04 -1.41907084e-03
1.08727834e-04 3.68887510e-04 -1.44130551e-03
4.04879529e-04 3.45501762e-04 -1.38645042e-03
4.56725580e-04 4.15683294e-04 -1.37791972e-03
6.79352973e-04 2.40828426e-04 -1.23599269e-03
8.82400219e-04 3.24062516e-04 -1.13046813e-03
9.60932748e-04 3.34498811e-04 -1.07589232e-03
9.22102317e-04 3.99517228e-04 -1.11501280e-03
-1.13759545e-03 5.96930468e-04 -9.09018143e-04
-1.02190277e-03 5.43929940e-04 -1.04957672e-03
-8.55200809e-04 6.76917410e-04 -1.17941478e-03
-9.01455375e-04 5.37706637e-04 -1.15883539e-03
-6.31593634e-04 5.14403411e-04 -1.32855796e-03
-4.80827887e-04 4.41937336e-04 -1.37993902e-03
-4.14298610e-04 3.85144061e-04 -1.39317379e-03
-3.45522038e-04 4.30575171e-04 -1.41628953e-03
-1.26199477e-04 4.47896617e-04 -1.44972459e-03
-1.94850948e-04 5.05621773e-04 -1.44859544e-03
-1.06977337e-04 5.26899533e-04 -1.45393152e-03
-1.08934346e-05 3.31264913e-04 -1.43631337e-03
2.65312652e-04 4.30170328e-04 -1.42914076e-03
3.69232686e-04 4.19691778e-04 -1.40658690e-03
1.96730753e-04 2.39266075e-04 -1.39640360e-03
3.49413679e-04 6.40393708e-04 -1.39566632e-03
4.14463458e-04 4.86649512e-04 -1.39468317e-03
5.75022936e-04 3.15481309e-04 -1.31706268e-03
7.29609944e-04 3.08359290e-04 -1.22693443e-03
8.48078749e-04 3.97275344e-04 -1.16585922e-03
1.03432446e-03 4.83047878e-04 -1.03676992e-03
-1.08294058e-03 5.73286166e-04 -9.81848505e-04
-1.06941852e-03 4.94862723e-04 -9.97253032e-04
-9.24402572e-04 6.98447786e-04 -1.11670844e-03
-7.74982458e-04 6.06650321e-04 -1.24811908e-03
-6.39954765e-04 5.99434105e-04 -1.32490603e-03
-4.87342694e-04 5.29676483e-04 -1.38703402e-03
-4.12533973e-04 4.83683516e-04 -1.40465300e-03
-2.72599630e-04 4.72746889e-04 -1.43405925e-03
-3.43115079e-04 5.25823052e-04 -1.42357221e-03
-2.63109367e-04 5.62299918e-04 -1.43859940e-03
-2.63639099e-05 5.63197729e-04 -1.45568888e-03
1.29163592e-04 5.35687959e-04 -1.44740546e-03
1.72642610e-04 4.33056643e-04 -1.44387123e-03
2.15243008e-04 5.03264130e-04 -1.43707607e-03
2.85551591e-04 5.61137397e-04 -1.42128949e-03
5.93117510e-04 4.72957956e-04 -1.32588820e-03
5.54907619e-04 5.48238957e-04 -1.34188587e-03
6.46668441e-04 3.05945511e-04 -1.27571031e-03
6.28350381e-04 3.87732327e-04 -1.29849768e-03
9.63837958e-04 4.75995622e-04 -1.09344945e-03
9.30754401e-04 5.53905784e-04 -1.11986514e-03
-1.14356581e-03 6.81479863e-04 -8.82057631e-04
-1.03494161e-03 6.21509249e-04 -1.02804814e-03
-9.83063293e-04 6.59903088e-04 -1.07435504e-03
-8.43959382e-04 5.98459528e-04 -1.20116590e-03
-5.64939690e-04 5.67339776e-04 -1.36049929e-03
-4.15425971e-04 5.76794663e-04 -1.40755811e-03
-4.20299664e-04 6.60032892e-04 -1.40005460e-03
-3.39654555e-04 6.12014298e-04 -1.42363289e-03
-2.61152031e-04 6.43762339e-04 -1.43223545e-03
-1.81203120e-04 5.84920300e-04 -1.44738087e-03
-9.98916515e-05 6.11172133e-04 -1.45163639e-03
5.33813309e-05 5.92948827e-04 -1.45129744e-03
1.27718125e-04 6.25830181e-04 -1.44232401e-03
2.02072366e-04 5.84937620e-04 -1.43516809e-03
2.70012143e-04 6.42206516e-04 -1.41208747e-03
5.10794132e-04 4.75531302e-04 -1.36132866e-03
4.68319691e-04 5.45902108e-04 -1.37594925e-03
6.32745644e-04 5.50634893e-04 -1.30427783e-03
7.00521714e-04 3.78323039e-04 -1.25969793e-03
8.91703458e-04 4.78568813e-04 -1.14463573e-03
8.86976437e-04 6.26170732e-04 -1.14698523e-03
-1.09313152e-03 6.51841468e-04 -9.54373275e-04
-1.04305922e-03 6.99514307e-04 -1.00398316e-03
-9.84775370e-04 7.40622545e-04 -1.04845699e-03
-6.41836301e-04 6.81327553e-04 -1.31161877e-03
-5.68948030e-04 6.48368715e-04 -1.35216628e-03
-4.93541717e-04 6.10988938e-04 -1.38409078e-03
-4.33477476e-04 7.39014403e-04 -1.38028881e-03
-3.44526925e-04 6.89061389e-04 -1.41256436e-03
-2.66824928e-04 7.24444483e-04 -1.41490384e-03
-1.80352345e-04 6.65733858e-04 -1.43864220e-03
-1.01737245e-04 6.94353692e-04 -1.43928490e-03
-2.33100930e-05 6.50210636e-04 -1.44917733e-03
4.90126887e-05 6.82534617e-04 -1.44255418e-03
1.22386874e-04 7.13302072e-04 -1.42836996e-03
1.97304349e-04 6.74404562e-04 -1.42286808e-03
4.28527603e-04 6.17775882e-04 -1.38010638e-03
4.33789992e-04 7.67316707e-04 -1.34805774e-03
5.13436884e-04 6.18001755e-04 -1.35315978e-03
6.67563669e-04 4.65300831e-04 -1.28623861e-03
7.75674542e-04 3.88983744e-04 -1.21543456e-03
8.54425175e-04 5.51453051e-04 -1.16916078e-03
-1.09393222e-03 7.32893494e-04 -9.30192725e-04
-9.81204349e-04 8.21988188e-04 -1.01717365e-03
-8.64794528e-04 7.52780697e-04 -1.14851045e-03
-7.10126989e-04 6.50061086e-04 -1.28000932e-03
-6.59055394e-04 7.55568743e-04 -1.28055070e-03
-5.00504953e-04 6.91757541e-04 -1.36980659e-03
-5.07639893e-04 7.74706751e-04 -1.34278893e-03
-3.56485905e-04 7.65644847e-04 -1.38827727e-03
-2.81923684e-04 8.03264552e-04 -1.38849826e-03
-1.89255459e-04 7.47808884e-04 -1.41853898e-03
-1.13272568e-04 7.77818056e-04 -1.41741864e-03
-2.94775572e-05 7.35284399e-04 -1.43444041e-03
4.59719195e-05 7.65182024e-04 -1.42349568e-03
1.24017986e-04 7.95028799e-04 -1.40585961e-03
2.08158448e-04 7.51300234e-04 -1.40245780e-03
3.76653709e-04 7.13643984e-04 -1.37417617e-03
5.09298864e-04 7.72317445e-04 -1.32370078e-03
4.63829756e-04 6.89374118e-04 -1.35644154e-03
7.05425825e-04 5.43908002e-04 -1.26608225e-03
8.18259120e-04 4.70239707e-04 -1.19372873e-03
8.47000877e-04 6.95861070e-04 -1.16497087e-03
-1.04027906e-03 7.79360041e-04 -9.76043040e-04
-9.76676049e-04 8.99187117e-04 -9.81423426e-04
[...]
POINT_DATA 20213
SCALARS pressure double 1
LOOKUP_TABLE default
1.17523906e+03
0.00000000e+00
0.00000000e+00
0.00000000e+00
0.00000000e+00
0.00000000e+00
7.68165706e+02
7.59420636e+02
0.00000000e+00
1.15738473e+03
9.56066437e+02
8.14172884e+02
8.95621264e+02
0.00000000e+00
7.12491743e+02
8.72931935e+02
1.28657085e+03
8.59413183e+02
1.13645958e+03
1.11891606e+03
1.06727501e+03
0.00000000e+00
1.17770961e+03
1.42803784e+03
1.10812417e+03
9.48194429e+02
1.18231769e+03
7.38833237e+02
0.00000000e+00
0.00000000e+00
0.00000000e+00
0.00000000e+00
0.00000000e+00
1.24713934e+03
1.34314089e+03
1.18883842e+03
9.02023392e+02
1.03007649e+03
1.13655605e+03
0.00000000e+00
9.17669239e+02
1.06605803e+03
1.41066659e+03
1.56443699e+03
1.24912737e+03
9.37518839e+02
1.43525318e+03
9.75259380e+02
7.69308212e+02
7.29151141e+02
0.00000000e+00
0.00000000e+00
8.72496674e+02
0.00000000e+00
1.54712580e+03
0.00000000e+00
0.00000000e+00
0.00000000e+00
1.03828373e+03
0.00000000e+00
1.05118125e+03
1.00129370e+03
0.00000000e+00
1.55707573e+03
1.64856877e+03
1.54358405e+03
0.00000000e+00
0.00000000e+00
0.00000000e+00
0.00000000e+00
0.00000000e+00
6.40955561e+02
0.00000000e+00
1.05080483e+03
0.00000000e+00
9.99107193e+02
1.33740823e+03
1.51086862e+03
1.15762176e+03
0.00000000e+00
8.86048937e+02
0.00000000e+00
1.14296839e+03
1.31757690e+03
1.68159340e+03
0.00000000e+00
1.52845033e+03
8.34621546e+02
0.00000000e+00
0.00000000e+00
0.00000000e+00
0.00000000e+00
6.97229731e+02
9.56943104e+02
0.00000000e+00
0.00000000e+00
1.25862949e+03
1.38414363e+03
1.41251072e+03
1.36662441e+03
1.19082697e+03
1.00697333e+03
0.00000000e+00
1.17582672e+03
0.00000000e+00
1.63446806e+03
0.00000000e+00
0.00000000e+00
1.19493973e+03
0.00000000e+00
6.06118186e+02
5.75769483e+02
0.00000000e+00
7.97266858e+02
0.00000000e+00
7.63878278e+02
0.00000000e+00
1.45658126e+03
1.39200112e+03
1.20689942e+03
1.29685876e+03
1.35015924e+03
0.00000000e+00
1.02418979e+03
0.00000000e+00
0.00000000e+00
1.61356261e+03
1.74237347e+03
0.00000000e+00
1.01935616e+03
0.00000000e+00
0.00000000e+00
0.00000000e+00
5.24471203e+02
5.78088694e+02
0.00000000e+00
7.27734524e+02
0.00000000e+00
1.40994669e+03
1.30121527e+03
1.25292730e+03
0.00000000e+00
0.00000000e+00
9.46244368e+02
8.88706325e+02
0.00000000e+00
7.42546821e+02
1.35709662e+03
1.21159939e+03
0.00000000e+00
9.41546382e+02
0.00000000e+00
6.28110750e+02
0.00000000e+00
6.60083340e+02
0.00000000e+00
0.00000000e+00
7.69568728e+02
0.00000000e+00
0.00000000e+00
0.00000000e+00
1.12787462e+03
0.00000000e+00
0.00000000e+00
0.00000000e+00
0.00000000e+00
8.78852056e+02
0.00000000e+00
1.38627325e+03
0.00000000e+00
0.00000000e+00
8.26732452e+02
0.00000000e+00
0.00000000e+00
0.00000000e+00
0.00000000e+00
0.00000000e+00
0.00000000e+00
8.20181808e+02
0.00000000e+00
0.00000000e+00
0.00000000e+00
0.00000000e+00
1.20742277e+03
1.29193137e+03
0.00000000e+00
0.00000000e+00
0.00000000e+00
8.40559056e+02
1.04542572e+03
0.00000000e+00
0.00000000e+00
8.36167799e+02
9.00166045e+02
8.13615547e+02
9.79414311e+02
0.00000000e+00
0.00000000e+00
8.19051485e+02
9.95728213e+02
0.00000000e+00
0.00000000e+00
0.00000000e+00
0.00000000e+00
1.19399935e+03
1.14445809e+03
1.23697441e+03
0.00000000e+00
0.00000000e+00
0.00000000e+00
0.00000000e+00
0.00000000e+00
0.00000000e+00
0.00000000e+00
7.89943040e+02
8.67269858e+02
0.00000000e+00
0.00000000e+00
9.63133642e+02
9.70539946e+02
1.19742172e+03
1.13042459e+03
0.00000000e+00
0.00000000e+00
0.00000000e+00
0.00000000e+00
1.22415759e+03
1.04580320e+03
0.00000000e+00
0.00000000e+00
0.00000000e+00
0.00000000e+00
0.00000000e+00
7.16077683e+02
0.00000000e+00
7.96146269e+02
8.63832910e+02
9.18947852e+02
8.46372882e+02
0.00000000e+00
8.67310911e+02
1.09758033e+03
9.90500647e+02
1.38555957e+03
0.00000000e+00
9.76846813e+02
1.21750340e+03
0.00000000e+00
0.00000000e+00
0.00000000e+00
6.65853762e+02
0.00000000e+00
9.32764505e+02
8.51484303e+02
6.94867442e+02
0.00000000e+00
0.00000000e+00
0.00000000e+00
8.12848755e+02
8.09174154e+02
0.00000000e+00
1.24613097e+03
1.29773245e+03
1.32266307e+03
1.56014579e+03
1.18661385e+03
1.23811400e+03
0.00000000e+00
1.10943341e+03
0.00000000e+00
0.00000000e+00
0.00000000e+00
0.00000000e+00
0.00000000e+00
0.00000000e+00
6.35558843e+02
6.77554040e+02
0.00000000e+00
0.00000000e+00
7.23957499e+02
0.00000000e+00
1.07370790e+03
1.32417660e+03
1.46749199e+03
1.56174924e+03
1.43180058e+03
0.00000000e+00
1.33023386e+03
1.27472019e+03
1.02820007e+03
9.05483098e+02
0.00000000e+00
0.00000000e+00
0.00000000e+00
0.00000000e+00
0.00000000e+00
0.00000000e+00
0.00000000e+00
0.00000000e+00
3.74440835e+02
0.00000000e+00
0.00000000e+00
0.00000000e+00
9.94920045e+02
1.44481625e+03
1.60486026e+03
1.70188384e+03
1.58862036e+03
1.39888035e+03
1.30194844e+03
0.00000000e+00
9.82136445e+02
0.00000000e+00
1.08601618e+03
9.65656535e+02
7.31959296e+02
0.00000000e+00
0.00000000e+00
0.00000000e+00
0.00000000e+00
0.00000000e+00
0.00000000e+00
5.71642150e+02
8.42012536e+02
0.00000000e+00
0.00000000e+00
1.55408747e+03
1.67239887e+03
1.58186953e+03
1.46537880e+03
1.46897702e+03
1.08176476e+03
7.92326075e+02
0.00000000e+00
8.86532985e+02
9.88646642e+02
0.00000000e+00
0.00000000e+00
0.00000000e+00
0.00000000e+00
0.00000000e+00
0.00000000e+00
6.40814595e+02
6.91355309e+02
0.00000000e+00
1.10205454e+03
0.00000000e+00
1.39383802e+03
1.61198660e+03
1.52919806e+03
1.48917580e+03
0.00000000e+00
1.04274628e+03
8.40759401e+02
0.00000000e+00
0.00000000e+00
7.90471224e+02
0.00000000e+00
0.00000000e+00
0.00000000e+00
0.00000000e+00
0.00000000e+00
0.00000000e+00
0.00000000e+00
6.81034534e+02
0.00000000e+00
0.00000000e+00
1.25302256e+03
1.53230022e+03
1.42043528e+03
0.00000000e+00
1.31363290e+03
0.00000000e+00
9.28991424e+02
0.00000000e+00
0.00000000e+00
0.00000000e+00
9.61690829e+02
0.00000000e+00
0.00000000e+00
0.00000000e+00
0.00000000e+00
0.00000000e+00
0.00000000e+00
0.00000000e+00
0.00000000e+00
0.00000000e+00
9.07559903e+02
1.06857139e+03
1.38762626e+03
1.29659379e+03
0.00000000e+00
1.09756206e+03
8.84997199e+02
7.24330047e+02
0.00000000e+00
0.00000000e+00
6.24131391e+02
7.39684519e+02
0.00000000e+00
0.00000000e+00
0.00000000e+00
0.00000000e+00
0.00000000e+00
0.00000000e+00
7.52512854e+02
0.00000000e+00
7.98117063e+02
0.00000000e+00
0.00000000e+00
9.43661465e+02
1.14082262e+03
1.02606680e+03
0.00000000e+00
0.00000000e+00
6.88064096e+02
0.00000000e+00
0.00000000e+00
6.58418808e+02
0.00000000e+00
0.00000000e+00
0.00000000e+00
0.00000000e+00
0.00000000e+00
0.00000000e+00
0.00000000e+00
0.00000000e+00
0.00000000e+00
1.13783703e+03
0.00000000e+00
0.00000000e+00
0.00000000e+00
1.00271302e+03
1.13587400e+03
8.70553755e+02
0.00000000e+00
5.66321323e+02
0.00000000e+00
0.00000000e+00
5.83830075e+02
5.40281729e+02
0.00000000e+00
9.24984413e+02
1.15000979e+03
9.17222715e+02
0.00000000e+00
0.00000000e+00
8.62063359e+02
0.00000000e+00
0.00000000e+00
1.10253443e+03
1.29966921e+03
1.25305418e+03
1.42643581e+03
1.25654954e+03
1.33824495e+03
1.25471177e+03
1.00391589e+03
1.15949752e+03
1.08455344e+03
1.08651013e+03
1.32565429e+03
0.00000000e+00
1.27670003e+03
9.45686087e+02
1.66989420e+03
6.97237272e+02
1.28162530e+03
1.07353307e+03
1.20246421e+03
9.89784819e+02
1.38637114e+03
1.94690159e+03
1.91510287e+03
6.32751509e+02
1.92750925e+03
1.62399706e+03
1.23232791e+03
1.21502529e+03
1.10944758e+03
1.17602589e+03
1.15280488e+03
1.13029766e+03
1.52083853e+03
1.17517487e+03
8.53034393e+02
1.31341769e+03
0.00000000e+00
1.36088636e+03
1.58249892e+03
0.00000000e+00
0.00000000e+00
4.99413797e+02
0.00000000e+00
0.00000000e+00
0.00000000e+00
1.36754359e+03
1.77146519e+03
1.37548096e+03
1.14601326e+03
1.05014710e+03
1.19098263e+03
9.01607773e+02
1.11211248e+03
0.00000000e+00
1.01746810e+03
2.03715919e+03
1.38780322e+03
9.00218108e+02
2.03773491e+03
6.09346970e+02
1.31729093e+03
7.20545217e+02
1.69562129e+03
8.94195748e+02
1.31456016e+03
1.39373392e+03
1.36536016e+03
1.58173731e+03
1.46264309e+03
1.22896468e+03
1.29426280e+03
1.13082270e+03
1.34951058e+03
1.09362179e+03
1.54345953e+03
9.67437305e+02
1.33705435e+03
1.33422657e+03
2.06902611e+03
1.66984685e+03
1.14321826e+03
1.20875131e+03
1.34873463e+03
1.45535746e+03
1.61913023e+03
2.06658556e+03
7.40168115e+02
1.72722176e+03
7.92165531e+02
1.65825830e+03
1.04568611e+03
1.43156855e+03
1.20484693e+03
9.99153439e+02
0.00000000e+00
1.44507510e+03
2.07708291e+03
6.69909479e+02
4.74303127e+02
2.02201586e+03
0.00000000e+00
1.84215484e+03
1.28782909e+03
1.01291321e+03
1.42942126e+03
1.82237736e+03
1.63366952e+03
1.41862447e+03
1.45106020e+03
7.07800289e+02
1.32619200e+03
9.80870534e+02
1.15301740e+03
9.73978278e+02
1.17424521e+03
0.00000000e+00
1.63411212e+03
1.33354437e+03
7.78207084e+02
1.06396785e+03
1.24899036e+03
5.30453043e+02
1.47999597e+03
1.21631894e+03
8.60756836e+02
2.04476006e+03
1.44659524e+03
1.42740983e+03
2.01815977e+03
1.51741864e+03
1.54045720e+03
1.31546066e+03
1.09805677e+03
1.00510618e+03
1.14639113e+03
1.06661121e+03
8.44453360e+02
1.59334196e+03
5.00582886e+02
0.00000000e+00
8.50930211e+02
1.18127808e+03
1.67276143e+03
1.06341753e+03
1.68061768e+03
1.82239282e+03
1.35669568e+03
1.32178834e+03
1.40900571e+03
2.00428148e+03
1.54751705e+03
1.45568849e+03
1.44907444e+03
9.25331448e+02
8.49685244e+02
0.00000000e+00
1.00610420e+03
7.32146289e+02
1.53529074e+03
1.63412852e+03
0.00000000e+00
9.66518721e+02
1.79661108e+03
1.36942588e+03
9.66715387e+02
1.75026243e+03
1.27694359e+03
9.66927612e+02
9.99809994e+02
1.95837364e+03
1.95352477e+03
1.47842204e+03
1.47524098e+03
1.15691118e+03
1.73450521e+03
1.77862457e+03
0.00000000e+00
9.73865129e+02
0.00000000e+00
1.42430676e+03
1.95463055e+03
9.04608193e+02
6.18111411e+02
8.18147330e+02
7.81548873e+02
9.37017263e+02
9.60172770e+02
1.54074527e+03
1.21075105e+03
1.21505068e+03
1.38561708e+03
1.80185949e+03
1.51631618e+03
1.63162198e+03
1.48704456e+03
9.66355468e+02
1.00226720e+03
0.00000000e+00
8.79718581e+02
0.00000000e+00
1.19652656e+03
1.42186534e+03
0.00000000e+00
8.07108814e+02
4.60658689e+02
7.84870434e+02
6.85223587e+02
1.18036752e+03
1.17247274e+03
1.50722880e+03
1.36311982e+03
1.58354098e+03
9.68282475e+02
1.51118884e+03
1.27749060e+03
9.83161393e+02
1.21423330e+03
1.96251831e+03
0.00000000e+00
1.08012575e+03
0.00000000e+00
1.03434285e+03
9.21621929e+02
6.54194352e+02
2.62059623e+02
3.02814907e+02
4.77245669e+02
9.74282927e+02
1.13795273e+03
2.04711335e+03
1.32155676e+03
1.86011209e+03
1.35793575e+03
1.42818328e+03
1.50178462e+03
1.29854239e+03
1.07372140e+03
8.50664774e+02
7.62135801e+02
0.00000000e+00
7.34764129e+02
0.00000000e+00
8.87865976e+02
1.34312051e+03
0.00000000e+00
1.21347866e+03
1.73326682e+03
4.00005398e+02
1.11461300e+03
1.66177194e+03
2.05167291e+03
1.29298773e+03
1.24623765e+03
1.78047697e+03
1.37453872e+03
1.96463647e+03
1.08696207e+03
9.97749456e+02
1.12326604e+03
1.78585146e+03
0.00000000e+00
1.39211218e+03
0.00000000e+00
8.96941597e+02
4.51072945e+02
6.77643641e+02
1.32151071e+03
2.53833443e+02
3.88672924e+02
9.83542698e+02
1.07678078e+03
1.49437589e+03
9.85359577e+02
1.24554117e+03
1.08422530e+03
1.36443127e+03
1.33661772e+03
1.29958734e+03
1.00442917e+03
1.09857279e+03
1.14351511e+03
0.00000000e+00
8.72549452e+02
0.00000000e+00
7.95935281e+02
4.22569355e+02
5.52040511e+02
7.24282700e+02
1.23450701e+03
8.69340882e+02
1.44971680e+03
1.99802728e+03
1.36845920e+03
1.10872023e+03
1.64124055e+03
1.22087581e+03
1.39618772e+03
1.20325746e+03
1.42539087e+03
1.20526819e+03
1.55744980e+03
7.69851178e+02
9.16369186e+02
7.80219892e+02
7.70694829e+02
0.00000000e+00
9.61243165e+02
8.22462322e+02
3.16434025e+02
4.70727451e+02
0.00000000e+00
1.03028280e+03
1.04074527e+03
7.71763034e+02
1.20595654e+03
1.23777236e+03
1.31271564e+03
1.26132464e+03
1.32351395e+03
9.13210202e+02
1.27681298e+03
1.43381735e+03
8.73398434e+02
1.04877015e+03
6.94456644e+02
9.09882832e+02
0.00000000e+00
1.30866213e+03
1.30082424e+03
5.07773035e+02
1.91701493e+03
8.72782255e+02
1.21656087e+03
8.37225368e+02
1.26291373e+03
1.07951911e+03
1.01423802e+03
1.17317195e+03
1.20621770e+03
1.14264103e+03
1.85566766e+03
1.42646725e+03
2.02361172e+03
9.36205562e+02
1.34160316e+03
5.56294464e+02
0.00000000e+00
0.00000000e+00
1.13370151e+03
7.42605419e+02
1.02424887e+03
7.01821145e+02
1.43682294e+03
1.17894617e+03
1.19562169e+03
1.11299983e+03
1.11540919e+03
1.21336029e+03
1.03446808e+03
1.68629336e+03
1.37189043e+03
1.05189529e+03
7.52989895e+02
8.97840261e+02
1.13561664e+03
6.65509671e+02
5.51789271e+02
0.00000000e+00
0.00000000e+00
1.16787718e+03
1.03255217e+03
7.58202414e+02
1.23281815e+03
1.03988903e+03
9.09951572e+02
7.91142435e+02
0.00000000e+00
1.07085548e+03
0.00000000e+00
1.38074523e+03
1.23420223e+03
1.22136572e+03
5.94913695e+02
9.93306361e+02
8.30331133e+02
6.67329389e+02
6.09320804e+02
1.02506743e+03
0.00000000e+00
8.11661712e+02
1.55579201e+03
1.09905587e+03
1.29855526e+03
8.48320255e+02
1.18332138e+03
1.12509477e+03
1.12738693e+03
1.11913181e+03
1.11311084e+03
1.34482812e+03
1.16337973e+03
1.34416631e+03
9.39457511e+02
7.32959262e+02
7.00865066e+02
7.08459671e+02
9.74147601e+02
8.98845943e+02
1.59993288e+03
0.00000000e+00
9.08138494e+02
0.00000000e+00
0.00000000e+00
0.00000000e+00
0.00000000e+00
0.00000000e+00
7.42435855e+02
1.01962491e+03
1.14868664e+03
1.13368277e+03
0.00000000e+00
0.00000000e+00
0.00000000e+00
8.90939434e+02
0.00000000e+00
5.41099469e+02
0.00000000e+00
0.00000000e+00
0.00000000e+00
5.56681696e+02
0.00000000e+00
1.09629076e+03
8.80291901e+02
0.00000000e+00
9.20003217e+02
8.03269987e+02
8.63848060e+02
8.04709741e+02
8.23819629e+02
0.00000000e+00
6.84192865e+02
7.55933442e+02
1.27540144e+03
1.36586778e+03
8.87704088e+02
9.96363318e+02
0.00000000e+00
8.45394851e+02
8.10458271e+02
8.71761324e+02
1.25880072e+03
0.00000000e+00
0.00000000e+00
1.06589053e+03
1.18241457e+03
1.03787114e+03
9.05246628e+02
8.56869157e+02
9.05890918e+02
9.59168008e+02
1.59935079e+03
6.74079465e+02
1.24132367e+03
1.41519502e+03
1.01189840e+03
9.75437059e+02
1.35559006e+03
1.18747482e+03
1.73455001e+03
1.29490658e+03
1.15253670e+03
6.86700246e+02
9.76021240e+02
0.00000000e+00
1.09645419e+03
1.97865921e+03
1.85980885e+03
2.02998901e+03
1.32429969e+03
2.00899772e+03
1.09482376e+03
2.03844426e+03
8.08724970e+02
9.00742492e+02
1.74690347e+03
1.74256159e+03
1.36878832e+03
1.22705590e+03
1.56981306e+03
1.41075592e+03
9.30415056e+02
1.01437422e+03
9.20264667e+02
1.27192978e+03
1.30120248e+03
7.24310326e+02
1.32481014e+03
1.11189094e+03
1.42514692e+03
8.19315905e+02
1.23514447e+03
9.09424868e+02
1.89802331e+03
1.00367608e+03
1.16847864e+03
1.36322704e+03
1.38302788e+03
8.16534370e+02
9.27510102e+02
8.28759132e+02
1.28053871e+03
1.37997630e+03
9.02609859e+02
1.79010135e+03
1.29987958e+03
1.62569289e+03
1.47433871e+03
1.75237287e+03
7.57694754e+02
1.48718865e+03
1.89240063e+03
1.01080713e+03
1.31619501e+03
6.00100009e+02
1.22789948e+03
9.33346675e+02
0.00000000e+00
9.28395700e+02
1.19262392e+03
1.63165363e+03
9.90909315e+02
1.02742542e+03
1.01600003e+03
1.61987605e+03
1.24234976e+03
0.00000000e+00
1.58770309e+03
1.22367052e+03
1.74911099e+03
1.25603322e+03
1.89187847e+03
1.73410498e+03
1.10451261e+03
9.88558453e+02
1.15971704e+03
1.19712561e+03
6.96069286e+02
1.77692640e+03
1.83758655e+03
6.76796668e+02
9.91452352e+02
1.66835961e+03
1.36732222e+03
1.72843761e+03
1.44345607e+03
8.04304131e+02
0.00000000e+00
1.74182654e+03
1.31085462e+03
1.98975081e+03
7.98889734e+02
1.83689923e+03
1.42537548e+03
1.22878266e+03
1.43804072e+03
1.70358352e+03
1.83572020e+03
1.21803486e+03
6.77158720e+02
1.33644090e+03
1.22828318e+03
1.48169800e+03
1.93562845e+03
1.48187800e+03
1.66734534e+03
1.48917152e+03
1.10016561e+03
7.58870710e+02
0.00000000e+00
1.47003063e+03
2.07744799e+03
1.86794858e+03
1.72156374e+03
1.67684206e+03
6.04912986e+02
1.32188357e+03
5.89665773e+02
1.08363800e+03
1.71553479e+03
1.37216486e+03
9.94342561e+02
1.77530918e+03
1.77698065e+03
1.27556723e+03
1.67897460e+03
1.82934955e+03
1.61702231e+03
7.77493444e+02
8.07792400e+02
1.60598994e+03
1.38011963e+03
1.13216445e+03
8.22254218e+02
1.92151654e+03
1.32786224e+03
2.04003057e+03
6.68207852e+02
1.72582135e+03
1.50439976e+03
1.58513902e+03
9.85891339e+02
1.39500698e+03
1.90998801e+03
1.88897213e+03
8.57472309e+02
2.02015877e+03
1.34796567e+03
1.62648255e+03
0.00000000e+00
0.00000000e+00
1.50183274e+03
1.30312931e+03
1.99754716e+03
4.53102842e+02
2.07963282e+03
2.07201762e+03
1.84980135e+03
1.13704638e+03
0.00000000e+00
1.57326712e+03
6.74691708e+02
1.95900493e+03
1.12888590e+03
8.40615278e+02
1.39421834e+03
1.47427785e+03
1.06824020e+03
1.09665787e+03
1.71300544e+03
8.72899414e+02
0.00000000e+00
0.00000000e+00
0.00000000e+00
1.25934002e+03
3.34357710e+02
1.66782421e+03
1.67035479e+03
1.28234617e+03
8.75494324e+02
2.05648235e+03
2.01372526e+03
1.30015702e+03
2.02727891e+03
5.83947369e+02
1.82895944e+03
1.48665252e+03
1.46793781e+03
1.02608222e+03
8.92880278e+02
1.19717953e+03
9.31543949e+02
7.15062520e+02
8.22781966e+02
0.00000000e+00
2.05341431e+03
6.64028158e+02
1.66917387e+03
1.36248724e+03
1.26100480e+03
0.00000000e+00
2.00274075e+03
1.94820485e+03
1.38023382e+03
1.32629621e+03
7.03462063e+02
2.02882726e+03
1.32272349e+03
1.30716340e+03
1.12360990e+03
1.12223704e+03
1.89420873e+03
8.77859094e+02
9.62042151e+02
0.00000000e+00
1.12095925e+03
2.01869317e+03
7.67951526e+02
1.87710509e+03
1.61115054e+03
1.97720964e+03
1.94827264e+03
1.96440780e+03
1.76247568e+03
1.53945275e+03
1.84680931e+03
6.70010464e+02
1.60906555e+03
1.18481761e+03
1.95561629e+03
1.98572200e+03
9.34045777e+02
1.99700841e+03
0.00000000e+00
0.00000000e+00
0.00000000e+00
0.00000000e+00
2.07453607e+03
8.78632941e+02
2.07372499e+03
1.27742206e+03
1.24262254e+03
1.59621038e+03
1.25100867e+03
1.48850151e+03
5.46556491e+02
2.01528636e+03
2.11334333e+03
1.76724433e+03
8.98741152e+02
1.17288472e+03
1.85442771e+03
1.24605843e+03
9.19993030e+02
9.17396105e+02
0.00000000e+00
0.00000000e+00
1.65814597e+03
1.50171283e+03
1.31607212e+03
1.89420371e+03
1.51620360e+03
1.21562384e+03
6.25820382e+02
1.73697355e+03
1.39083184e+03
1.26417600e+03
1.52174456e+03
1.86672778e+03
1.16585605e+03
1.76311339e+03
1.87745894e+03
5.36195705e+02
1.14553098e+03
1.49385525e+03
7.06085097e+02
5.63642524e+02
5.93575245e+02
1.27230909e+03
1.88775266e+03
1.65881319e+03
1.95518543e+03
1.97747219e+03
1.93371881e+03
1.23496254e+03
2.05941181e+03
1.48012814e+03
5.36071295e+02
2.03801876e+03
2.08785910e+03
1.22975492e+03
1.47708981e+03
2.05212200e+03
2.02610258e+03
1.30008908e+03
1.04770687e+03
6.35037300e+02
0.00000000e+00
0.00000000e+00
1.74337580e+03
1.39201119e+03
2.03263217e+03
2.06915630e+03
1.91196859e+03
1.39624364e+03
1.22996072e+03
1.49620828e+03
1.78545278e+03
1.90355312e+03
1.17969902e+03
1.43260160e+03
1.24797091e+03
2.04222553e+03
1.25481166e+03
2.07440608e+03
1.59500413e+03
1.93734057e+03
9.53584961e+02
0.00000000e+00
7.94730056e+02
8.38275925e+02
1.00332951e+03
1.05817173e+03
2.00065251e+03
1.60070148e+03
1.79202659e+03
1.35810621e+03
1.07234237e+03
1.18813810e+03
1.14698893e+03
8.72963276e+02
7.41494026e+02
1.01500628e+03
1.15535791e+03
1.85096689e+03
1.74672591e+03
1.38175530e+03
1.15893208e+03
8.37876139e+02
0.00000000e+00
9.19841244e+02
1.24677117e+03
1.62144521e+03
1.60539205e+03
1.25227453e+03
2.08121990e+03
1.18736426e+03
1.46832837e+03
2.09580212e+03
2.11043276e+03
2.13442445e+03
1.96694957e+03
2.02212996e+03
1.10751461e+03
1.11183829e+03
1.46057763e+03
1.73693171e+03
1.79804106e+03
1.96605880e+03
8.36764422e+02
0.00000000e+00
9.02952824e+02
1.25499329e+03
8.88798005e+02
1.23592987e+03
1.46419261e+03
1.45997303e+03
1.21324542e+03
9.95141307e+02
1.04400713e+03
9.73109316e+02
9.27144551e+02
0.00000000e+00
7.55464466e+02
0.00000000e+00
9.15174567e+02
8.31842772e+02
1.13985348e+03
7.86712839e+02
1.50721994e+03
5.54417128e+02
0.00000000e+00
9.28497463e+02
8.55202450e+02
0.00000000e+00
6.77292953e+02
0.00000000e+00
7.65685094e+02
0.00000000e+00
9.65205019e+02
1.00970387e+03
1.05465619e+03
7.69642167e+02
0.00000000e+00
0.00000000e+00
0.00000000e+00
0.00000000e+00
0.00000000e+00
0.00000000e+00
0.00000000e+00
0.00000000e+00
0.00000000e+00
0.00000000e+00
9.93384610e+02
1.25610766e+03
0.00000000e+00
1.96305727e+03
1.09654469e+03
9.91925668e+02