# vtk DataFile Version 3.0
MPS 3D Simulation Step 1700
ASCII
DATASET UNSTRUCTURED_GRID
POINTS 20213 double
-1.13301574e-03 2.36839608e-04 -1.08452543e-03
-1.02928005e-03 2.47877532e-04 -1.17598608e-03
-9.60680884e-04 2.61618496e-04 -1.23018574e-03
-8.92385077e-04 2.85052929e-04 -1.29176943e-03
-8.01673847e-04 2.15905454e-04 -1.33215065e-03
-6.58753389e-04 2.00370974e-04 -1.39937177e-03
-4.72062482e-04 2.20179548e-04 -1.48046211e-03
-4.14645579e-04 1.60628826e-04 -1.47172817e-03
-2.68060244e-04 1.40523338e-04 -1.41854209e-03
-8.68435341e-05 1.33278166e-04 -1.43488969e-03
9.99081966e-05 1.24840267e-04 -1.50872394e-03
-5.44181982e-05 1.30737896e-04 -1.51792432e-03
1.07041138e-05 1.25693446e-04 -1.43734889e-03
1.94147886e-04 1.23098206e-04 -1.44947825e-03
3.77337701e-04 1.68384495e-04 -1.48678275e-03
6.84556486e-04 1.35693488e-04 -1.35236460e-03
5.93293173e-04 1.20515455e-04 -1.30523550e-03
8.31555132e-04 1.81673441e-04 -1.28259492e-03
8.99645210e-04 1.65685683e-04 -1.20840564e-03
9.47094822e-04 1.23356996e-04 -1.14472681e-03
1.10812104e-03 1.26853007e-04 -1.04351235e-03
-1.06574872e-03 1.97005041e-04 -1.12071500e-03
-1.02075663e-03 3.25387622e-04 -1.20731221e-03
-9.55223113e-04 3.47228344e-04 -1.25801531e-03
-7.37151333e-04 2.53883227e-04 -1.38427174e-03
-6.55233257e-04 3.68768619e-04 -1.43903601e-03
-6.75958026e-04 2.93249263e-04 -1.42092513e-03
-6.13230190e-04 2.54316750e-04 -1.44140495e-03
-4.48278105e-04 2.93062647e-04 -1.51231557e-03
-3.18461252e-04 1.98999549e-04 -1.52134942e-03
-1.91084438e-04 1.17367935e-04 -1.48857689e-03
2.77726788e-05 1.57175681e-04 -1.53007656e-03
2.72609992e-04 1.66636879e-04 -1.51643044e-03
4.97229833e-04 1.26751774e-04 -1.42492903e-03
4.54399767e-04 1.87523611e-04 -1.47254296e-03
5.56701326e-04 1.66477321e-04 -1.43995851e-03
6.46191443e-04 2.03396228e-04 -1.41078755e-03
7.26342245e-04 2.09876358e-04 -1.37421810e-03
7.18654227e-04 1.28903237e-04 -1.26544182e-03
7.67673056e-04 1.72455202e-04 -1.32812302e-03
8.89698870e-04 2.31615182e-04 -1.26460979e-03
1.09487833e-03 1.90558257e-04 -1.09121470e-03
-1.08882476e-03 2.86161630e-04 -1.14122305e-03
-1.07592574e-03 3.65914570e-04 -1.16741825e-03
-1.00373626e-03 4.10737770e-04 -1.22616650e-03
-8.22585574e-04 2.95800815e-04 -1.33779755e-03
-7.54620604e-04 3.26079590e-04 -1.38515327e-03
-5.89948782e-04 3.33978104e-04 -1.46867751e-03
-5.03423849e-04 3.50565881e-04 -1.50328362e-03
-5.35964732e-04 2.72788250e-04 -1.47669110e-03
-3.64716699e-04 3.03567582e-04 -1.54095314e-03
-2.17329040e-04 2.19866341e-04 -1.54971694e-03
-6.74091022e-05 2.79097939e-04 -1.57829760e-03
2.41465925e-04 2.25822008e-04 -1.54808563e-03
3.22857670e-04 2.92039386e-04 -1.54940203e-03
5.61672937e-04 2.28073419e-04 -1.45942309e-03
4.03395760e-04 2.45267469e-04 -1.51260096e-03
6.98456051e-04 2.75211110e-04 -1.41209987e-03
7.26075724e-04 3.53439020e-04 -1.41119254e-03
7.73493617e-04 2.86073812e-04 -1.37256636e-03
8.13669386e-04 2.39002138e-04 -1.32950546e-03
9.64256759e-04 2.36441155e-04 -1.20690786e-03
9.95866102e-04 1.79166603e-04 -1.15784174e-03
-1.18173204e-03 3.92683563e-04 -1.06298478e-03
-1.12406453e-03 4.12463759e-04 -1.12325237e-03
-8.87948627e-04 3.57467831e-04 -1.30672358e-03
-7.24214797e-04 3.92851003e-04 -1.39897034e-03
-6.21579037e-04 4.39537098e-04 -1.45028508e-03
-5.58038765e-04 4.06660549e-04 -1.48380464e-03
-4.11881835e-04 3.69726650e-04 -1.53444314e-03
-2.91685161e-04 2.70390294e-04 -1.55118794e-03
-2.17744473e-04 3.00462966e-04 -1.57143821e-03
-1.37512479e-04 2.47031446e-04 -1.56667520e-03
9.50932285e-06 3.11345016e-04 -1.58345086e-03
1.13758549e-04 1.88707809e-04 -1.54700425e-03
1.71802758e-04 2.55369049e-04 -1.56317044e-03
2.52757850e-04 3.10134829e-04 -1.56455810e-03
4.10506324e-04 3.22186876e-04 -1.53032951e-03
6.29002266e-04 2.80238074e-04 -1.44707746e-03
6.54851510e-04 3.61503682e-04 -1.44599354e-03
8.61507658e-04 3.09722133e-04 -1.31637401e-03
9.29232606e-04 2.96984063e-04 -1.26320696e-03
1.03160439e-03 2.89486024e-04 -1.18389011e-03
1.09496486e-03 3.33362690e-04 -1.14600921e-03
-1.16399718e-03 4.70702150e-04 -1.06325861e-03
-9.26374048e-04 4.27061999e-04 -1.27768019e-03
-8.17781978e-04 3.79384806e-04 -1.34637749e-03
-6.89102719e-04 4.64314240e-04 -1.40714592e-03
-5.26430351e-04 4.79317291e-04 -1.48478125e-03
-4.67797842e-04 4.25170345e-04 -1.51372566e-03
-3.04850028e-04 3.57177717e-04 -1.56193254e-03
-2.25308125e-04 3.77626502e-04 -1.57672381e-03
-1.45479917e-04 3.35095958e-04 -1.58467944e-03
-6.86581393e-05 3.63950244e-04 -1.58854069e-03
2.33532893e-05 3.88558108e-04 -1.58554602e-03
8.82373441e-05 2.58321513e-04 -1.57060952e-03
1.77791785e-04 3.34559501e-04 -1.57627744e-03
3.40099496e-04 4.47627890e-04 -1.54518036e-03
2.60713190e-04 3.95199505e-04 -1.56582328e-03
4.89895967e-04 2.57210449e-04 -1.49196384e-03
5.62129023e-04 3.10094002e-04 -1.47966515e-03
8.10250732e-04 3.54890123e-04 -1.36374059e-03
9.12429554e-04 3.73945276e-04 -1.29049244e-03
9.87331183e-04 3.35126756e-04 -1.23076552e-03
1.04607264e-03 3.83873622e-04 -1.18669378e-03
-1.13166758e-03 5.49919499e-04 -1.05733977e-03
-1.05255366e-03 4.51748102e-04 -1.18048609e-03
-8.56527543e-04 4.51147777e-04 -1.31473669e-03
-7.76468844e-04 4.57160606e-04 -1.35647389e-03
-5.91922235e-04 5.13214301e-04 -1.44835460e-03
-3.21868599e-04 5.05114107e-04 -1.53526102e-03
-3.48596484e-04 4.22738868e-04 -1.54662400e-03
-2.61584123e-04 4.47227663e-04 -1.56139649e-03
-1.54995833e-04 4.22617302e-04 -1.58118902e-03
-7.51201326e-05 4.38741429e-04 -1.58383026e-03
2.20426687e-06 4.65417751e-04 -1.57553819e-03
9.71702672e-05 3.36783851e-04 -1.58399202e-03
1.86489712e-04 4.24892887e-04 -1.57013593e-03
4.22411056e-04 4.09309090e-04 -1.52647688e-03
3.42612506e-04 3.68217544e-04 -1.55094017e-03
5.21394956e-04 4.07617502e-04 -1.49722357e-03
5.88986034e-04 3.90206300e-04 -1.47404931e-03
7.03297514e-04 4.40184964e-04 -1.42011753e-03
8.53884332e-04 4.14517306e-04 -1.33429426e-03
9.88309051e-04 4.13546502e-04 -1.23421517e-03
1.10136090e-03 4.19088590e-04 -1.13468403e-03
-1.07209109e-03 5.62471962e-04 -1.11735543e-03
-1.10171324e-03 4.88259062e-04 -1.12404352e-03
-9.09935907e-04 5.11387558e-04 -1.27361736e-03
-7.30386088e-04 5.29765495e-04 -1.36826023e-03
-6.47740855e-04 5.48950169e-04 -1.41031420e-03
-4.68009615e-04 5.33433125e-04 -1.48968573e-03
-2.43925984e-04 5.43957934e-04 -1.53939904e-03
-1.90191982e-04 4.90042157e-04 -1.56500814e-03
-1.02110879e-04 5.06319590e-04 -1.56908049e-03
-4.15062276e-05 5.47152136e-04 -1.55341912e-03
8.47319460e-05 4.89609027e-04 -1.56162635e-03
1.05028304e-04 4.14114952e-04 -1.57808190e-03
2.62847600e-04 4.77230538e-04 -1.55289000e-03
3.91863474e-04 5.00051739e-04 -1.52198834e-03
4.73303699e-04 4.70894010e-04 -1.50545416e-03
6.36334719e-04 4.61743716e-04 -1.44784781e-03
7.36074456e-04 5.09647797e-04 -1.39067593e-03
7.74778752e-04 4.21232016e-04 -1.38792525e-03
8.07959961e-04 4.84117386e-04 -1.35696641e-03
1.04596154e-03 4.72245335e-04 -1.17090077e-03
1.00845984e-03 5.51591753e-04 -1.17725624e-03
-1.12904243e-03 6.24959312e-04 -1.01139353e-03
-1.02100388e-03 5.34488722e-04 -1.17914037e-03
-9.79798819e-04 4.83879288e-04 -1.23043884e-03
-8.19914303e-04 5.28738496e-04 -1.31849177e-03
-5.36163305e-04 5.75379016e-04 -1.45139908e-03
-3.85751385e-04 5.59476490e-04 -1.50408637e-03
-3.06282518e-04 5.93405149e-04 -1.50923016e-03
-1.52658090e-04 5.71172191e-04 -1.54149098e-03
-8.29305023e-05 6.15991277e-04 -1.52833308e-03
3.99814714e-05 5.56728089e-04 -1.54472093e-03
1.35661254e-04 5.65529539e-04 -1.53563187e-03
1.81597770e-04 5.04259433e-04 -1.55346104e-03
3.16621746e-04 5.41384305e-04 -1.52565887e-03
4.28246604e-04 5.63657313e-04 -1.49427637e-03
5.03841748e-04 5.38741337e-04 -1.47893961e-03
5.65182913e-04 4.86999099e-04 -1.46812091e-03
6.50137148e-04 5.37625589e-04 -1.42135720e-03
7.87920230e-04 5.62972015e-04 -1.33852940e-03
9.23671068e-04 4.56889471e-04 -1.27920653e-03
9.80546573e-04 4.89904132e-04 -1.22459164e-03
1.05191282e-03 6.01840290e-04 -1.10857479e-03
-1.06468728e-03 6.28984493e-04 -1.07843587e-03
-1.00026304e-03 6.15138599e-04 -1.15199210e-03
-9.54694796e-04 5.66513989e-04 -1.21991300e-03
-6.88394819e-04 6.09360797e-04 -1.37096240e-03
-6.01265478e-04 6.17451851e-04 -1.40559728e-03
-4.57263214e-04 6.10834983e-04 -1.46509842e-03
-3.76526259e-04 6.39657136e-04 -1.47604939e-03
-2.19954213e-04 6.25504352e-04 -1.51267563e-03
-1.46681479e-04 6.63701735e-04 -1.50691225e-03
-3.70216276e-06 6.33639982e-04 -1.51809683e-03
8.22742435e-05 6.25021660e-04 -1.51611408e-03
2.33601765e-04 5.64364175e-04 -1.52782113e-03
2.76608355e-04 6.28086948e-04 -1.49918140e-03
3.53982900e-04 6.07057259e-04 -1.49478118e-03
4.13916001e-04 6.45640666e-04 -1.46371887e-03
5.73698984e-04 5.73921091e-04 -1.44022086e-03
5.63626726e-04 6.50570159e-04 -1.41276855e-03
7.14543048e-04 5.85416408e-04 -1.37463851e-03
8.69435588e-04 5.00348938e-04 -1.30994038e-03
9.30551766e-04 5.48259767e-04 -1.24355694e-03
9.87322257e-04 6.27372024e-04 -1.15560711e-03
-1.06432709e-03 6.94061739e-04 -1.03099730e-03
-9.45106941e-04 6.82398012e-04 -1.16144224e-03
-8.72856950e-04 5.79747558e-04 -1.27336838e-03
-7.62620077e-04 6.00055825e-04 -1.33400855e-03
-6.46798332e-04 6.81317577e-04 -1.35890310e-03
-5.23729411e-04 6.53557142e-04 -1.42261033e-03
-4.38321463e-04 6.86890456e-04 -1.43660117e-03
-2.86500319e-04 6.77326922e-04 -1.47981659e-03
-2.02869260e-04 7.12200762e-04 -1.47602132e-03
-6.01337707e-05 6.96394373e-04 -1.48904962e-03
2.83753497e-05 7.08929537e-04 -1.48022344e-03
1.83360442e-04 6.36673348e-04 -1.50212615e-03
2.35057503e-04 6.94628107e-04 -1.47549297e-03
3.23100740e-04 6.97442367e-04 -1.45776791e-03
4.15067029e-04 7.11390551e-04 -1.42877089e-03
4.92437390e-04 6.19283139e-04 -1.45223537e-03
5.77173406e-04 7.21284520e-04 -1.36860567e-03
6.41034434e-04 6.16356170e-04 -1.39906670e-03
8.03686148e-04 6.31988637e-04 -1.29396534e-03
9.30521738e-04 6.17509304e-04 -1.21255996e-03
1.03584186e-03 6.81662727e-04 -1.07872888e-03
-1.00298188e-03 6.89496695e-04 -1.09682663e-03
-9.25712528e-04 7.53027478e-04 -1.12125531e-03
[...]
POINT_DATA 20213
SCALARS pressure double 1
LOOKUP_TABLE default
0.00000000e+00
0.00000000e+00
0.00000000e+00
7.24539512e+02
8.40522843e+02
1.06404064e+03
0.00000000e+00
0.00000000e+00
1.22271229e+03
1.20739463e+03
1.08200358e+03
0.00000000e+00
1.08175195e+03
1.04095904e+03
0.00000000e+00
0.00000000e+00
8.32816724e+02
1.14554287e+03
1.18431367e+03
1.13966564e+03
0.00000000e+00
0.00000000e+00
0.00000000e+00
0.00000000e+00
1.12283055e+03
1.08364608e+03
1.16674991e+03
0.00000000e+00
1.18738719e+03
1.31372323e+03
1.18594821e+03
1.25056120e+03
0.00000000e+00
0.00000000e+00
0.00000000e+00
0.00000000e+00
8.11683483e+02
0.00000000e+00
9.36142750e+02
1.00550217e+03
1.23658229e+03
1.27566082e+03
0.00000000e+00
0.00000000e+00
0.00000000e+00
9.55985699e+02
0.00000000e+00
0.00000000e+00
1.01189158e+03
0.00000000e+00
0.00000000e+00
1.43251778e+03
1.53769333e+03
1.11520834e+03
0.00000000e+00
8.46928297e+02
9.85883863e+02
8.38418721e+02
0.00000000e+00
0.00000000e+00
9.34192816e+02
1.28079887e+03
1.21477026e+03
7.47512440e+02
0.00000000e+00
0.00000000e+00
1.10891604e+03
9.78354516e+02
0.00000000e+00
0.00000000e+00
1.35987226e+03
1.47493584e+03
1.60258292e+03
1.48169625e+03
1.33163911e+03
1.45124662e+03
1.43741687e+03
1.10619898e+03
8.92241755e+02
0.00000000e+00
0.00000000e+00
1.07600593e+03
1.15610992e+03
0.00000000e+00
0.00000000e+00
0.00000000e+00
0.00000000e+00
1.02953625e+03
0.00000000e+00
0.00000000e+00
1.07190183e+03
1.24678579e+03
1.47791521e+03
1.30356156e+03
1.20019513e+03
1.51274360e+03
1.53123703e+03
1.09971782e+03
1.25025861e+03
0.00000000e+00
0.00000000e+00
0.00000000e+00
9.41615007e+02
0.00000000e+00
0.00000000e+00
0.00000000e+00
0.00000000e+00
6.88178213e+02
9.73749913e+02
8.15767671e+02
0.00000000e+00
0.00000000e+00
1.01788846e+03
0.00000000e+00
0.00000000e+00
0.00000000e+00
1.45949446e+03
1.01854550e+03
1.07158889e+03
1.19640525e+03
8.86931576e+02
7.45297099e+02
0.00000000e+00
0.00000000e+00
9.69054400e+02
0.00000000e+00
0.00000000e+00
0.00000000e+00
0.00000000e+00
8.54973039e+02
8.00160654e+02
0.00000000e+00
8.49476306e+02
0.00000000e+00
0.00000000e+00
0.00000000e+00
0.00000000e+00
1.13993674e+03
0.00000000e+00
9.59706283e+02
0.00000000e+00
0.00000000e+00
0.00000000e+00
0.00000000e+00
0.00000000e+00
8.76237859e+02
0.00000000e+00
0.00000000e+00
0.00000000e+00
0.00000000e+00
7.44981808e+02
0.00000000e+00
0.00000000e+00
7.75480554e+02
7.03811476e+02
7.77245425e+02
0.00000000e+00
0.00000000e+00
0.00000000e+00
0.00000000e+00
0.00000000e+00
0.00000000e+00
0.00000000e+00
0.00000000e+00
7.35559583e+02
9.48604897e+02
9.47974955e+02
0.00000000e+00
0.00000000e+00
0.00000000e+00
0.00000000e+00
0.00000000e+00
0.00000000e+00
6.60830500e+02
0.00000000e+00
0.00000000e+00
0.00000000e+00
7.83594832e+02
0.00000000e+00
6.32665033e+02
0.00000000e+00
0.00000000e+00
0.00000000e+00
0.00000000e+00
5.21823120e+02
0.00000000e+00
0.00000000e+00
7.66749847e+02
0.00000000e+00
0.00000000e+00
8.11997972e+02
0.00000000e+00
0.00000000e+00
0.00000000e+00
6.33241678e+02
7.42924548e+02
0.00000000e+00
0.00000000e+00
7.98899330e+02
0.00000000e+00
0.00000000e+00
0.00000000e+00
0.00000000e+00
0.00000000e+00
0.00000000e+00
0.00000000e+00
0.00000000e+00
6.91742100e+02
0.00000000e+00
0.00000000e+00
8.51011455e+02
1.00292624e+03
0.00000000e+00
0.00000000e+00
7.03608051e+02
0.00000000e+00
0.00000000e+00
7.80977788e+02
0.00000000e+00
0.00000000e+00
1.00358284e+03
0.00000000e+00
6.62762423e+02
6.64379344e+02
8.05832236e+02
0.00000000e+00
7.04333529e+02
6.88325867e+02
7.34902863e+02
0.00000000e+00
0.00000000e+00
1.02605608e+03
1.08110408e+03
0.00000000e+00
0.00000000e+00
5.80316966e+02
0.00000000e+00
0.00000000e+00
0.00000000e+00
0.00000000e+00
0.00000000e+00
0.00000000e+00
8.02805537e+02
0.00000000e+00
6.82577795e+02
6.81661284e+02
0.00000000e+00
0.00000000e+00
8.50238287e+02
8.53768332e+02
0.00000000e+00
0.00000000e+00
1.32027603e+03
1.16574969e+03
0.00000000e+00
0.00000000e+00
0.00000000e+00
0.00000000e+00
0.00000000e+00
0.00000000e+00
0.00000000e+00
0.00000000e+00
8.72847760e+02
8.20016348e+02
6.13241303e+02
0.00000000e+00
7.33910896e+02
0.00000000e+00
9.48902573e+02
8.74996353e+02
9.00821483e+02
0.00000000e+00
0.00000000e+00
1.41372060e+03
0.00000000e+00
0.00000000e+00
8.02339427e+02
0.00000000e+00
0.00000000e+00
0.00000000e+00
0.00000000e+00
0.00000000e+00
0.00000000e+00
8.27467557e+02
8.45556887e+02
0.00000000e+00
0.00000000e+00
0.00000000e+00
0.00000000e+00
8.66447482e+02
0.00000000e+00
1.11291750e+03
1.14328365e+03
1.11907908e+03
1.40403512e+03
1.54102919e+03
1.18714710e+03
1.06867605e+03
0.00000000e+00
0.00000000e+00
0.00000000e+00
0.00000000e+00
0.00000000e+00
0.00000000e+00
0.00000000e+00
0.00000000e+00
0.00000000e+00
0.00000000e+00
0.00000000e+00
8.97437589e+02
0.00000000e+00
0.00000000e+00
9.72069887e+02
1.21654379e+03
0.00000000e+00
0.00000000e+00
1.40236351e+03
1.48652920e+03
1.45290328e+03
0.00000000e+00
0.00000000e+00
0.00000000e+00
5.54094963e+02
0.00000000e+00
0.00000000e+00
0.00000000e+00
7.35860284e+02
0.00000000e+00
7.57874275e+02
9.16321121e+02
0.00000000e+00
9.22256830e+02
9.25313727e+02
9.76981917e+02
1.09204539e+03
9.74186042e+02
0.00000000e+00
1.71410786e+03
1.62242895e+03
1.29074843e+03
0.00000000e+00
0.00000000e+00
6.78358760e+02
0.00000000e+00
0.00000000e+00
6.27623123e+02
6.55916731e+02
0.00000000e+00
0.00000000e+00
7.37009331e+02
9.41048196e+02
1.05767620e+03
8.93100898e+02
0.00000000e+00
0.00000000e+00
9.51678114e+02
0.00000000e+00
1.54788714e+03
1.80761606e+03
1.75274784e+03
1.70527520e+03
1.42509555e+03
0.00000000e+00
1.16163531e+03
0.00000000e+00
5.69715903e+02
0.00000000e+00
6.09880053e+02
0.00000000e+00
0.00000000e+00
9.66613812e+02
1.03154488e+03
1.09157559e+03
0.00000000e+00
0.00000000e+00
0.00000000e+00
0.00000000e+00
1.09546912e+03
1.28067093e+03
1.71080565e+03
1.86996944e+03
1.89745721e+03
1.53836056e+03
1.44051362e+03
1.02654218e+03
1.16969430e+03
9.06397361e+02
6.12683812e+02
0.00000000e+00
0.00000000e+00
9.11000061e+02
1.16525561e+03
1.21839164e+03
1.26108185e+03
0.00000000e+00
0.00000000e+00
0.00000000e+00
1.08204596e+03
1.06848762e+03
1.63522025e+03
1.91017995e+03
1.93092961e+03
1.85195031e+03
1.63550262e+03
1.69584204e+03
1.24594879e+03
9.86702028e+02
0.00000000e+00
0.00000000e+00
9.28370787e+02
0.00000000e+00
0.00000000e+00
8.72620832e+02
1.14035361e+03
1.08221236e+03
0.00000000e+00
0.00000000e+00
8.41124128e+02
1.09275260e+03
1.15095414e+03
1.53231980e+03
1.82645688e+03
1.89145639e+03
1.97311078e+03
1.80748369e+03
1.50537600e+03
1.02649525e+03
0.00000000e+00
7.88196867e+02
0.00000000e+00
0.00000000e+00
0.00000000e+00
1.19301572e+03
0.00000000e+00
0.00000000e+00
1.00071819e+03
0.00000000e+00
8.84062671e+02
9.01881401e+02
9.84107083e+02
8.09365139e+02
7.23025357e+02
0.00000000e+00
5.43100225e+02
0.00000000e+00
7.14334280e+02
1.06417232e+03
9.63414938e+02
1.04428555e+03
1.08544812e+03
1.46474283e+03
1.37459435e+03
1.42815657e+03
7.49721358e+02
1.00307394e+03
8.26606641e+02
1.20595002e+03
1.04558072e+03
1.08846911e+03
1.30287020e+03
1.09840307e+03
0.00000000e+00
7.20493949e+02
1.09792721e+03
7.93735762e+02
5.51554461e+02
9.90313691e+02
1.12354489e+03
1.18743711e+03
1.46586093e+03
1.40455511e+03
1.48140758e+03
1.30948995e+03
1.46763661e+03
1.25184148e+03
1.27837091e+03
1.13146207e+03
8.65611342e+02
1.00440832e+03
1.13952388e+03
1.25754121e+03
1.31949752e+03
1.30714617e+03
0.00000000e+00
6.31424218e+02
5.93877640e+02
9.58520343e+02
1.18991740e+03
1.22968738e+03
1.14145435e+03
1.23117274e+03
1.40830010e+03
1.28829395e+03
1.40495121e+03
1.48956809e+03
0.00000000e+00
0.00000000e+00
1.06745526e+03
9.01477047e+02
1.45011021e+03
1.14152227e+03
1.38776517e+03
1.45484058e+03
1.36243686e+03
6.78906178e+02
5.05760925e+02
1.07637282e+03
1.15685444e+03
1.11376251e+03
1.37811191e+03
1.09469031e+03
1.10465501e+03
1.29036079e+03
1.15896940e+03
1.38040037e+03
1.21034225e+03
1.43186909e+03
1.05901704e+03
1.06560585e+03
8.84548791e+02
1.19646757e+03
1.48163128e+03
1.02936650e+03
1.13360459e+03
1.44790844e+03
0.00000000e+00
7.58738747e+02
1.43079376e+03
1.09891721e+03
1.10614100e+03
1.15936381e+03
1.33804833e+03
1.02430085e+03
1.26676261e+03
1.03175645e+03
1.25940094e+03
1.34965483e+03
1.24958457e+03
1.30462709e+03
1.41946354e+03
1.15087906e+03
1.62326863e+03
9.39525320e+02
1.13747100e+03
1.29526788e+03
1.57553347e+03
0.00000000e+00
1.14664380e+03
5.65086680e+02
7.28743594e+02
1.02242500e+03
7.00837376e+02
1.23364083e+03
9.74432596e+02
9.87063931e+02
9.92228380e+02
1.23888028e+03
9.42560829e+02
1.29359553e+03
9.91486824e+02
1.64502641e+03
1.13348664e+03
1.26338928e+03
9.36712455e+02
9.72540143e+02
1.09202112e+03
0.00000000e+00
6.47277192e+02
9.48028461e+02
6.72225640e+02
8.43977092e+02
1.26381876e+03
8.20428312e+02
1.13735340e+03
8.94600833e+02
1.01199324e+03
1.18026814e+03
1.00073174e+03
1.12789756e+03
1.19249605e+03
9.10073021e+02
8.30389791e+02
9.03460204e+02
1.18076286e+03
9.10572168e+02
8.88786382e+02
8.83937704e+02
0.00000000e+00
7.71522372e+02
8.55171968e+02
0.00000000e+00
7.35963326e+02
7.29636756e+02
1.01791241e+03
9.35601393e+02
1.15323243e+03
1.51599157e+03
9.15048766e+02
8.80044486e+02
8.54404388e+02
1.33797009e+03
9.41740747e+02
8.17690320e+02
1.15417257e+03
1.02729284e+03
8.97632760e+02
0.00000000e+00
9.11290566e+02
0.00000000e+00
7.49025871e+02
1.30230783e+03
0.00000000e+00
1.15064708e+03
9.53241443e+02
8.89922227e+02
1.12168157e+03
1.15557727e+03
1.69090230e+03
1.25338781e+03
1.48065061e+03
1.13551843e+03
1.57062466e+03
1.08581255e+03
7.84502562e+02
8.22187221e+02
1.43134861e+03
1.36582439e+03
0.00000000e+00
1.14813614e+03
8.62548343e+02
8.21889078e+02
1.06280005e+03
0.00000000e+00
8.17623940e+02
7.88218312e+02
8.95995758e+02
8.80802155e+02
7.89229290e+02
1.10395937e+03
9.17127425e+02
9.34455063e+02
9.27977796e+02
1.06627228e+03
8.21647360e+02
7.72161689e+02
8.39202952e+02
9.94212071e+02
1.16881476e+03
0.00000000e+00
9.20061973e+02
7.46376156e+02
0.00000000e+00
1.37991978e+03
0.00000000e+00
1.08416609e+03
6.92963175e+02
7.50282662e+02
7.93616754e+02
1.07290731e+03
1.06443119e+03
1.19055035e+03
1.11122500e+03
1.25919083e+03
1.51199482e+03
1.31572507e+03
8.96959128e+02
8.95260476e+02
1.29523955e+03
1.52048264e+03
0.00000000e+00
1.07487932e+03
0.00000000e+00
1.20529190e+03
1.23202447e+03
0.00000000e+00
1.01585406e+03
8.29248512e+02
7.11318856e+02
9.14283156e+02
8.88389986e+02
9.85351573e+02
1.14008669e+03
1.21579541e+03
1.11650717e+03
1.09191928e+03
8.75672120e+02
1.16583907e+03
9.56196023e+02
1.02781413e+03
9.47070362e+02
8.53862757e+02
8.88478282e+02
8.75572023e+02
1.02089324e+03
1.50132898e+03
7.30022940e+02
1.50635421e+03
1.34597495e+03
7.94045734e+02
6.91713383e+02
1.23692678e+03
1.36416208e+03
1.07151881e+03
1.08127018e+03
1.42050383e+03
1.69252330e+03
1.43220933e+03
1.00096862e+03
1.06155388e+03
1.28027853e+03
1.32754467e+03
0.00000000e+00
1.30509377e+03
1.09081663e+03
1.05296514e+03
1.40120079e+03
0.00000000e+00
1.18815783e+03
1.05908281e+03
8.49724713e+02
7.38513816e+02
7.85379352e+02
1.09666406e+03
7.90131651e+02
9.04731271e+02
9.24158694e+02
1.07561842e+03
9.45293092e+02
8.93244465e+02
1.06368912e+03
1.19874123e+03
1.14610058e+03
0.00000000e+00
1.17777595e+03
7.73004646e+02
0.00000000e+00
1.41879068e+03
1.68795570e+03
1.48502601e+03
1.49211324e+03
1.25462831e+03
7.76021970e+02
9.71256974e+02
7.80709862e+02
8.11469232e+02
1.12038360e+03
8.46381492e+02
8.88913280e+02
8.86777929e+02
8.52641377e+02
1.07422204e+03
1.22665343e+03
1.13154259e+03
1.19878715e+03
1.20044360e+03
0.00000000e+00
0.00000000e+00
1.21754881e+03
1.68084128e+03
1.69308869e+03
1.10940588e+03
0.00000000e+00
1.00941733e+03
8.31618911e+02
8.44815253e+02
8.12400221e+02
8.93449567e+02
8.90005524e+02
9.45745758e+02
9.97347988e+02
1.10591568e+03
9.91437859e+02
1.15269026e+03
1.09352326e+03
1.15801600e+03
1.17288872e+03
9.64045660e+02
0.00000000e+00
1.41336244e+03
1.63114578e+03
1.80686121e+03
1.41547122e+03
1.10694687e+03
1.19723667e+03
8.33707345e+02
1.00805946e+03
7.86929058e+02
8.08620462e+02
8.39230760e+02
1.03836766e+03
9.82803798e+02
1.31047560e+03
1.12370537e+03
1.34726523e+03
1.07517951e+03
1.26299979e+03
1.16728438e+03
8.05000170e+02
0.00000000e+00
1.66364818e+03
1.84045939e+03
1.70246682e+03
1.57067825e+03
1.39925636e+03
8.93118466e+02
8.62774746e+02
1.18478876e+03
7.83535422e+02
1.10154860e+03
8.28447924e+02
1.17656136e+03
1.02360232e+03
1.18841170e+03
1.21116644e+03
1.08068170e+03
1.26316917e+03
1.04164142e+03
1.14041839e+03
1.03680973e+03
0.00000000e+00
1.63576709e+03
1.84458136e+03
1.82811345e+03
1.56685859e+03
1.65436814e+03
1.20239755e+03
0.00000000e+00
6.59508836e+02
0.00000000e+00
0.00000000e+00
0.00000000e+00
0.00000000e+00
7.78032033e+02
1.23996058e+03
1.11488470e+03
1.27905006e+03
1.05327083e+03
1.04032613e+03
1.07808158e+03
9.56317845e+02
1.12778068e+03
1.70028463e+03
1.73221296e+03
1.84694936e+03
1.64748831e+03
1.44634774e+03
1.18045353e+03
1.05342995e+03
1.24061224e+03
1.08344395e+03
1.35281452e+03
9.95240750e+02
1.39590109e+03
1.15926866e+03
1.16550320e+03
1.19429255e+03
1.09726730e+03
1.03563692e+03
9.02967337e+02
1.17614151e+03
8.69213555e+02
0.00000000e+00
1.53197151e+03
1.76487525e+03
1.65064419e+03
1.61846525e+03
1.56089578e+03
1.23940026e+03
9.02181599e+02
7.11840928e+02
0.00000000e+00
1.13789225e+03
1.11356801e+03
1.17663560e+03
1.04782720e+03
1.19865885e+03
0.00000000e+00
0.00000000e+00
8.14608025e+02
7.70221770e+02
0.00000000e+00
0.00000000e+00
7.90031596e+02
5.71922564e+02
5.94234685e+02
0.00000000e+00
9.49112529e+02
0.00000000e+00
0.00000000e+00
1.04170636e+03
9.91860960e+02
1.26236981e+03
1.32723202e+03
8.80043836e+02
1.08943751e+03
0.00000000e+00
9.38792526e+02
1.17585171e+03
1.37460781e+03
1.42124619e+03
1.17169297e+03
1.15765463e+03
1.16115603e+03
0.00000000e+00
9.51581101e+02
8.95746075e+02
7.48440701e+02
1.12985116e+03
6.75923843e+02
1.20683060e+03
1.20470177e+03
1.47903364e+03
1.02409681e+03
1.45019369e+03
1.17411861e+03
1.52552610e+03
7.35692787e+02
9.99690809e+02
1.14212244e+03
1.29766262e+03
1.42616367e+03
1.25397951e+03
1.15946041e+03
1.42896161e+03
8.65572981e+02
8.26449700e+02
1.08511587e+03
9.00766017e+02
1.24322448e+03
1.26466246e+03
1.24766001e+03
1.46769211e+03
1.26598611e+03
1.12528605e+03
1.32671059e+03
1.20294736e+03
1.14922369e+03
1.22182612e+03
1.12104996e+03
1.12782039e+03
1.34108208e+03
1.52468300e+03
1.60204642e+03
1.19722856e+03
1.36283749e+03
0.00000000e+00
7.97680533e+02
1.41320255e+03
1.47095972e+03
1.40794680e+03
1.32350676e+03
1.35389335e+03
1.26441991e+03
1.23887190e+03
1.31117244e+03
1.40778141e+03
1.39213290e+03
1.22105592e+03
1.46506772e+03
1.36332552e+03
1.41209041e+03
1.24657327e+03
1.38844960e+03
1.53075354e+03
1.25034011e+03
1.64766023e+03
0.00000000e+00
1.22935124e+03
1.67765516e+03
1.49747419e+03
1.40817687e+03
1.24643359e+03
1.15760340e+03
1.28907592e+03
1.25534739e+03
1.24783047e+03
1.26872658e+03
1.43808307e+03
1.22095416e+03
1.32054186e+03
1.31556736e+03
1.19933537e+03
1.50836980e+03
1.30469902e+03
1.61007006e+03
1.44346588e+03
1.53258372e+03
0.00000000e+00
7.93212140e+02
1.37784608e+03
9.67021981e+02
1.29612162e+03
1.58344460e+03
1.52232386e+03
1.43986029e+03
1.26234862e+03
1.47184684e+03
1.17317073e+03
1.42449932e+03
1.17714023e+03
1.37328884e+03
1.48335580e+03
1.24202196e+03
1.63702349e+03
1.33794601e+03
1.45825611e+03
1.21505626e+03
1.43448766e+03
0.00000000e+00
1.08579491e+03
1.46884184e+03
1.09795286e+03
1.62980312e+03
9.58008144e+02
9.92702005e+02
1.08046942e+03
1.50984887e+03
1.11787822e+03
1.34803751e+03
1.49202142e+03
1.29062193e+03
8.62580050e+02
7.78771232e+02
1.31238441e+03
1.79236842e+03
1.36575907e+03
1.44101184e+03
1.18301862e+03
0.00000000e+00
0.00000000e+00
7.97952445e+02
1.23586392e+03
1.28112413e+03
1.05296349e+03
1.18066297e+03
9.12735772e+02
1.21055254e+03
1.20244348e+03
1.52546330e+03
1.10211910e+03
1.56361198e+03
1.55298464e+03
1.15020793e+03
1.03760639e+03
1.05586834e+03
1.35817379e+03
1.53471137e+03
1.30489836e+03
8.80514175e+02
1.28237426e+03
0.00000000e+00
0.00000000e+00
1.59685709e+03
8.28246440e+02
1.39910086e+03
1.82027373e+03
1.21393781e+03
1.17176997e+03
1.78892128e+03
1.60566407e+03
1.67279583e+03
1.67950293e+03
1.71611957e+03
1.42655277e+03
1.28335848e+03
1.87332633e+03
1.48122169e+03
1.17084460e+03
1.36866203e+03
0.00000000e+00
1.25824124e+03
6.74095295e+02
8.23094193e+02
1.36105250e+03
9.06778942e+02
1.17479644e+03
1.33943180e+03
1.00979070e+03
1.61908577e+03
1.43148486e+03
1.11672502e+03
1.38219868e+03
1.24816500e+03
1.67603599e+03
1.59599563e+03
1.13471159e+03
1.58734989e+03
1.18827326e+03
9.64282907e+02
1.61166640e+03
0.00000000e+00
5.74238419e+02
0.00000000e+00
8.96285140e+02
1.51306860e+03
1.16759954e+03
1.52920265e+03
1.76638523e+03
1.00822681e+03
1.00917455e+03
1.58357334e+03
1.33741904e+03
1.64056358e+03
1.43376106e+03
1.78533739e+03
1.16160745e+03
1.36185132e+03
1.90631598e+03
1.85165655e+03
1.06261981e+03
1.53021093e+03
7.02936190e+02
5.79739594e+02
0.00000000e+00
9.21240501e+02
1.60246689e+03
1.37280899e+03
1.31283303e+03
1.55928661e+03
1.00240208e+03
1.91679656e+03
1.26165404e+03
1.17739410e+03
1.30486316e+03
1.10946974e+03
1.77740117e+03
1.59719954e+03
1.19628430e+03
1.47229111e+03
1.26263162e+03
1.11371032e+03
1.55497064e+03
5.76936891e+02
0.00000000e+00
9.24193021e+02
1.01766786e+03
1.74956457e+03
1.58943689e+03
1.64007653e+03
1.75984795e+03
1.32744573e+03
1.26629786e+03
1.76100480e+03
1.34583323e+03
1.94603673e+03
1.32840907e+03
1.93331958e+03
1.38355769e+03
1.67960667e+03
1.40973375e+03
1.52747689e+03
1.18831078e+03
1.59973684e+03
0.00000000e+00
6.27376396e+02
8.29609023e+02
1.00462228e+03
1.58884376e+03
1.65381878e+03
1.50999629e+03
1.18327779e+03
8.03200582e+02
1.12632763e+03
1.01845260e+03
1.25102855e+03
1.45209994e+03
1.48303072e+03
1.50813687e+03
1.18604435e+03
1.07572565e+03
1.24647161e+03
1.43131918e+03
1.30660831e+03
1.21494047e+03
0.00000000e+00
0.00000000e+00
0.00000000e+00
1.02892120e+03
1.47607351e+03
1.68469925e+03
1.61751420e+03
1.37793353e+03
1.56904553e+03
8.78524807e+02
1.32379137e+03
1.02067715e+03
1.29754686e+03
1.12035085e+03
1.40200943e+03
9.99163004e+02
1.14502738e+03
1.34737618e+03
1.86781906e+03
1.33710115e+03
1.31352072e+03
1.02757997e+03
0.00000000e+00
0.00000000e+00
1.09413691e+03
1.67455698e+03
1.60026080e+03
1.86098071e+03
1.47734727e+03
1.15893617e+03
1.10393757e+03
1.47889724e+03
1.31229568e+03
1.96286789e+03
1.64456091e+03
1.58055242e+03
1.16302018e+03
1.29184982e+03
1.61295608e+03
1.82952518e+03
1.35965715e+03
1.30731026e+03
1.04368891e+03
7.69063060e+02
8.97540868e+02
1.52380702e+03
1.77460283e+03
1.59897888e+03
1.72613830e+03
1.80090237e+03
1.84111579e+03
1.11544982e+03
1.49109308e+03
1.21800838e+03
1.85307892e+03
1.28811145e+03
1.81279282e+03
1.13021303e+03
1.46455163e+03
1.89656043e+03
1.79594025e+03
1.46261435e+03
1.54395888e+03
1.18862370e+03
0.00000000e+00
1.03217044e+03
1.34187002e+03
1.64850511e+03
1.74430598e+03
1.62756526e+03
1.32823001e+03
1.37393704e+03
1.17319796e+03
1.02287774e+03
9.77857212e+02
8.39193025e+02
1.01889320e+03
1.18677856e+03
1.32693402e+03
1.31334724e+03
1.30048985e+03
1.60996938e+03
1.23689551e+03
1.26157885e+03
9.73905717e+02
0.00000000e+00
9.73599620e+02
1.36896613e+03
1.54439809e+03
1.58241573e+03
1.57785543e+03
1.54486502e+03
1.36654642e+03
1.26394931e+03
1.49668266e+03
1.41112508e+03
1.54219560e+03
1.55397636e+03
1.49892156e+03
1.30905581e+03
1.33473445e+03
1.28639375e+03
1.40016764e+03
1.11920754e+03
1.49480267e+03
1.06592135e+03
7.43597318e+02
9.96755088e+02
1.44495927e+03
1.69808654e+03
1.69156966e+03
1.56759193e+03
1.42792204e+03
1.33401383e+03
0.00000000e+00
0.00000000e+00
0.00000000e+00
1.18990137e+03
1.33440698e+03
1.32586583e+03
1.32426588e+03
1.22517591e+03
1.11207936e+03
1.18020372e+03
9.03039525e+02
9.05299002e+02
8.66514116e+02
0.00000000e+00
1.28700408e+03
1.23786191e+03
1.46761722e+03
1.39957310e+03
1.36392835e+03
1.17645010e+03
0.00000000e+00
0.00000000e+00
0.00000000e+00
0.00000000e+00
1.11690346e+03
1.25424662e+03
1.27246489e+03
0.00000000e+00
1.38745414e+03
1.15482726e+03
0.00000000e+00
0.00000000e+00
0.00000000e+00
0.00000000e+00
0.00000000e+00
7.54820101e+02
6.67841118e+02
6.25376861e+02
9.07098008e+02
9.32120124e+02
1.13441902e+03