# vtk DataFile Version 3.0
MPS 3D Simulation Step 6900
ASCII
DATASET UNSTRUCTURED_GRID
POINTS 20213 double
-1.11896962e-03 3.48576290e-04 -8.38354877e-04
-1.04409672e-03 1.71772195e-04 -8.32724840e-04
-9.35732059e-04 3.04489764e-04 -1.01955430e-03
-8.82910635e-04 3.38634239e-04 -1.07703873e-03
-8.21933481e-04 1.95535470e-04 -1.06371049e-03
-8.32667226e-04 3.90770670e-04 -1.12938149e-03
-6.31285269e-04 2.45421788e-04 -1.21113760e-03
-4.94307201e-04 2.38647795e-04 -1.26982804e-03
-4.16629023e-04 1.21160685e-04 -1.16072483e-03
-3.69495114e-04 8.17154660e-04 -1.12223584e-03
-1.80863497e-04 8.86843247e-04 -1.24397054e-03
-2.65063775e-04 8.13072602e-04 -1.24873196e-03
-1.03659289e-04 6.43881260e-04 -1.18254731e-03
-5.47659675e-05 1.84241206e-04 -1.33278870e-03
4.96240338e-05 1.57542093e-04 -1.32718958e-03
4.83120682e-04 1.15085732e-04 -1.17698090e-03
2.35940108e-04 6.84590551e-04 -8.95616228e-04
5.19004662e-04 1.81320073e-04 -1.22708826e-03
6.23760854e-04 5.67054341e-04 -1.06076290e-03
7.89842575e-04 6.87975455e-04 -9.31612044e-04
1.06745093e-03 4.52654773e-04 -7.73328220e-04
-1.09838990e-03 2.65919430e-04 -8.30028832e-04
-1.04367494e-03 2.32082867e-04 -8.76484723e-04
-9.91259652e-04 3.44860428e-04 -9.78366954e-04
-8.94383654e-04 4.30643828e-04 -1.09115592e-03
-8.43152394e-04 5.67017299e-04 -1.14723662e-03
-9.52234671e-04 4.86020922e-04 -1.04952059e-03
-7.73292261e-04 4.37843673e-04 -1.18609639e-03
-5.41724111e-04 4.00799257e-04 -1.29809134e-03
-3.70433479e-04 2.17710152e-04 -1.30102893e-03
-3.72170426e-04 1.33303443e-04 -1.24764500e-03
-6.30638559e-05 2.60330657e-04 -1.36493432e-03
1.23434052e-04 1.73845359e-04 -1.33625199e-03
1.58478811e-04 3.70797857e-04 -1.39472892e-03
2.38242222e-04 3.36823470e-04 -1.37911507e-03
2.59133808e-04 2.65075655e-04 -1.35345875e-03
3.90430575e-04 1.30141933e-04 -1.23966802e-03
4.19283644e-04 2.51476847e-04 -1.30163534e-03
4.96562771e-04 6.26397692e-04 -1.22119269e-03
4.44859341e-04 1.83228230e-04 -1.25709950e-03
5.91038566e-04 1.89867246e-04 -1.20554538e-03
8.28161643e-04 1.21825962e-04 -9.98521688e-04
-1.06098002e-03 3.19788219e-04 -8.93852061e-04
-1.04467515e-03 3.90217014e-04 -9.36462342e-04
-1.03480942e-03 6.00197157e-04 -9.79975543e-04
-7.95732146e-04 3.19426794e-04 -1.13779875e-03
-9.44928914e-04 3.92303370e-04 -1.03894671e-03
-8.37818074e-04 4.77149985e-04 -1.14406245e-03
-5.68535432e-04 2.78751166e-04 -1.25233548e-03
-6.59640214e-04 3.19989039e-04 -1.22381289e-03
-4.26880269e-04 3.54836450e-04 -1.32566991e-03
-2.92190358e-04 2.36663906e-04 -1.32526702e-03
-1.28946788e-04 4.05285220e-04 -1.39127829e-03
1.68275356e-05 2.17353697e-04 -1.35722211e-03
1.50168661e-04 4.52155512e-04 -1.40200227e-03
3.23040365e-04 3.33433192e-04 -1.35691034e-03
2.61101627e-04 1.89412753e-04 -1.32102674e-03
4.04860450e-04 4.10649785e-04 -1.34934672e-03
4.81193003e-04 3.21588908e-04 -1.30384481e-03
4.03320395e-04 3.28929584e-04 -1.33300189e-03
6.52274379e-04 2.67773214e-04 -1.21146476e-03
7.47269705e-04 1.90895504e-04 -1.11418826e-03
7.44514092e-04 1.18459805e-04 -1.05682471e-03
-1.15230932e-03 4.37570384e-04 -8.23042585e-04
-1.06341207e-03 4.80629595e-04 -9.34486792e-04
-1.01598356e-03 5.23025417e-04 -9.91484451e-04
-8.97517085e-04 5.21191005e-04 -1.09984103e-03
-7.76385188e-04 5.21443287e-04 -1.19339460e-03
-6.86099641e-04 3.98382337e-04 -1.23086156e-03
-5.95942293e-04 3.53729226e-04 -1.26548307e-03
-3.51606792e-04 2.99336007e-04 -1.33348976e-03
-2.78428377e-04 3.28282271e-04 -1.35649368e-03
-2.99706979e-04 1.63215099e-04 -1.28940753e-03
-5.45150910e-05 4.43601861e-04 -1.40227502e-03
-1.22732348e-04 1.44707640e-04 -1.29757381e-03
4.15113750e-06 3.78875008e-04 -1.39982927e-03
1.01964372e-05 2.95646493e-04 -1.38265935e-03
2.43216407e-04 4.13028796e-04 -1.38737467e-03
3.38039524e-04 2.59328667e-04 -1.32951441e-03
4.63427797e-04 4.92371179e-04 -1.33883222e-03
7.06863283e-04 3.31083054e-04 -1.20140453e-03
7.27795970e-04 2.57544393e-04 -1.16038104e-03
8.06607904e-04 2.50388011e-04 -1.10403373e-03
8.79234091e-04 2.47306657e-04 -1.04604101e-03
-1.17559021e-03 5.22768336e-04 -8.08281734e-04
-9.79827969e-04 6.45759284e-04 -1.02916274e-03
-1.00050680e-03 4.38071296e-04 -9.91914647e-04
-7.81088661e-04 6.07649339e-04 -1.19291963e-03
-6.40017736e-04 5.19377188e-04 -1.27007462e-03
-7.05240307e-04 4.77153013e-04 -1.23105919e-03
-3.52305267e-04 3.85634695e-04 -1.34986688e-03
-2.69380487e-04 4.11707498e-04 -1.37120419e-03
-2.00690882e-04 3.56342286e-04 -1.37558156e-03
-1.21140836e-04 4.99602062e-04 -1.39789633e-03
-3.71159525e-05 5.32716845e-04 -1.40539756e-03
-1.36032801e-04 3.03549296e-04 -1.36956294e-03
2.46422568e-05 4.77070389e-04 -1.40540938e-03
2.67390565e-04 5.77665182e-04 -1.38811134e-03
7.81655549e-05 4.12678576e-04 -1.40443271e-03
3.25825931e-04 4.15546205e-04 -1.36940699e-03
3.84313368e-04 4.93809646e-04 -1.36068606e-03
5.77411811e-04 2.63703293e-04 -1.24513820e-03
7.80453708e-04 3.18618080e-04 -1.14785233e-03
8.56710487e-04 3.13152368e-04 -1.08955181e-03
8.37097732e-04 3.83989677e-04 -1.12226743e-03
-1.18045813e-03 6.43616254e-04 -8.10674013e-04
-1.08432671e-03 5.63439257e-04 -9.25928325e-04
-9.21887518e-04 6.88649933e-04 -1.07761055e-03
-9.65025961e-04 5.66818062e-04 -1.04302259e-03
-7.13935941e-04 5.63317614e-04 -1.23837592e-03
-5.59702276e-04 4.85125530e-04 -1.29898245e-03
-4.70842325e-04 4.24987108e-04 -1.32398658e-03
-4.00226653e-04 4.58565014e-04 -1.34841944e-03
-1.95906513e-04 4.53517582e-04 -1.38698790e-03
-2.49926088e-04 5.15370781e-04 -1.38444594e-03
-1.83258810e-04 5.61569698e-04 -1.39648183e-03
-6.89456361e-05 3.46860964e-04 -1.38926692e-03
2.20718886e-04 4.89275457e-04 -1.39615189e-03
3.02238123e-04 4.98698455e-04 -1.38111118e-03
9.42479155e-05 2.45065876e-04 -1.36770123e-03
2.73550135e-04 7.27264789e-04 -1.37777469e-03
3.51369244e-04 5.75091921e-04 -1.36899971e-03
4.80250858e-04 4.03840230e-04 -1.32377523e-03
6.34922942e-04 3.43008818e-04 -1.24607685e-03
7.65369502e-04 3.95548068e-04 -1.17583126e-03
9.60116440e-04 4.26747444e-04 -1.02884135e-03
-1.14144329e-03 5.89701263e-04 -8.58358585e-04
-1.12454757e-03 5.07050301e-04 -8.72288970e-04
-9.76625373e-04 7.30778418e-04 -1.01843271e-03
-8.49351692e-04 6.47245024e-04 -1.13823449e-03
-7.18311320e-04 6.49057167e-04 -1.23238223e-03
-5.70151384e-04 5.66791696e-04 -1.30119764e-03
-4.87198647e-04 5.11560531e-04 -1.32671143e-03
-3.23375939e-04 4.72707908e-04 -1.36927096e-03
-4.13592694e-04 5.44375961e-04 -1.35276033e-03
-3.34513703e-04 5.54993517e-04 -1.37222086e-03
-1.03090794e-04 5.88475975e-04 -1.40110453e-03
4.05242673e-05 5.70642310e-04 -1.40438373e-03
1.04625710e-04 5.19242168e-04 -1.40389340e-03
1.85573111e-04 5.61223861e-04 -1.39943600e-03
2.16408955e-04 6.49132397e-04 -1.39155802e-03
5.42203075e-04 4.97722260e-04 -1.31406308e-03
5.13586155e-04 5.75411302e-04 -1.32582433e-03
5.58858764e-04 3.39585595e-04 -1.28025647e-03
5.55195386e-04 4.18578809e-04 -1.29964006e-03
8.91581323e-04 4.43214642e-04 -1.08843769e-03
8.73896930e-04 5.30344729e-04 -1.11302144e-03
-1.18065547e-03 7.29541620e-04 -7.92180560e-04
-1.09105250e-03 6.42962271e-04 -9.16372891e-04
-1.03504663e-03 6.85783118e-04 -9.70382461e-04
-9.10076220e-04 6.06716810e-04 -1.09252576e-03
-6.45826358e-04 6.06176995e-04 -1.27063492e-03
-4.95047718e-04 5.95273548e-04 -1.32811730e-03
-5.00614464e-04 6.75660418e-04 -1.32373360e-03
-4.16631858e-04 6.25723948e-04 -1.35210025e-03
-3.38806631e-04 6.37272293e-04 -1.37203454e-03
-2.62504641e-04 6.00688431e-04 -1.38644259e-03
-1.87095227e-04 6.44697725e-04 -1.39480611e-03
-2.86549400e-05 6.25583106e-04 -1.40157177e-03
4.84668934e-05 6.58662782e-04 -1.40049998e-03
1.24886977e-04 6.09409875e-04 -1.40159310e-03
1.98471303e-04 7.31100676e-04 -1.38953547e-03
4.33854170e-04 5.75827195e-04 -1.34990467e-03
3.93393871e-04 6.51771894e-04 -1.35757741e-03
5.90233254e-04 5.84732151e-04 -1.29516260e-03
6.27936875e-04 4.22750698e-04 -1.26839080e-03
8.22999210e-04 4.65769556e-04 -1.14429605e-03
8.57172042e-04 6.20524253e-04 -1.13409366e-03
-1.13593078e-03 6.85822507e-04 -8.60137852e-04
-1.08308231e-03 7.31900946e-04 -9.10134610e-04
-1.02646362e-03 7.73718474e-04 -9.56884604e-04
-7.30952863e-04 7.33420810e-04 -1.21636520e-03
-6.54799046e-04 6.94719649e-04 -1.26181825e-03
-5.76763133e-04 6.49841845e-04 -1.29805157e-03
-5.08341846e-04 7.58957372e-04 -1.30856999e-03
-4.28419439e-04 7.07343770e-04 -1.34250153e-03
-3.50875903e-04 7.18792349e-04 -1.36102041e-03
-2.66823016e-04 6.85184585e-04 -1.38228142e-03
-1.92324185e-04 7.26133654e-04 -1.38673040e-03
-1.08427286e-04 6.74073749e-04 -1.39632160e-03
-2.82499014e-05 7.12947027e-04 -1.39536880e-03
5.62243748e-05 7.45189600e-04 -1.39153782e-03
1.30534975e-04 6.91297685e-04 -1.39698180e-03
3.53899730e-04 7.28185273e-04 -1.35833843e-03
3.86290012e-04 8.04448129e-04 -1.33173481e-03
4.78725674e-04 6.54593208e-04 -1.33133994e-03
6.16408481e-04 5.06323963e-04 -1.28310275e-03
6.98505376e-04 4.11656648e-04 -1.22619378e-03
8.06914898e-04 5.54648443e-04 -1.16572195e-03
-1.12848131e-03 7.72003330e-04 -8.44654254e-04
-1.01447116e-03 8.57169198e-04 -9.36262321e-04
-9.15350499e-04 7.71053978e-04 -1.06443229e-03
-7.91023210e-04 6.90269047e-04 -1.18193577e-03
-7.37864100e-04 8.12399645e-04 -1.19210091e-03
-5.82502036e-04 7.27507011e-04 -1.28800467e-03
-5.95188048e-04 8.04569515e-04 -1.26729463e-03
-4.31789081e-04 7.88253157e-04 -1.32641489e-03
-3.56289962e-04 8.02993879e-04 -1.34297127e-03
-2.78279780e-04 7.68302718e-04 -1.36867478e-03
-2.05715047e-04 8.06733618e-04 -1.37229771e-03
-1.14751645e-04 7.57251620e-04 -1.38743716e-03
-3.90599115e-05 7.92980645e-04 -1.38315137e-03
3.45721302e-05 8.25193601e-04 -1.37627725e-03
1.31336195e-04 7.80709102e-04 -1.38459168e-03
3.01573860e-04 8.04317569e-04 -1.35442588e-03
4.66389563e-04 8.10000882e-04 -1.30270502e-03
4.36282168e-04 7.29322171e-04 -1.33440065e-03
6.67587859e-04 5.78902185e-04 -1.25678296e-03
7.54750769e-04 4.81296809e-04 -1.19523856e-03
8.30546950e-04 7.02700261e-04 -1.14683819e-03
-1.07470689e-03 8.18189885e-04 -8.90023668e-04
-1.00093142e-03 9.37233051e-04 -9.09205239e-04
[...]
POINT_DATA 20213
SCALARS pressure double 1
LOOKUP_TABLE default
0.00000000e+00
0.00000000e+00
0.00000000e+00
0.00000000e+00
0.00000000e+00
0.00000000e+00
0.00000000e+00
9.89569462e+02
7.55445742e+02
1.18650480e+03
1.23254751e+03
1.09696975e+03
1.40695076e+03
9.01537270e+02
6.96583362e+02
5.78344721e+02
2.04132002e+03
4.62456523e+02
9.57200739e+02
1.31772240e+03
1.06792030e+03
0.00000000e+00
0.00000000e+00
0.00000000e+00
0.00000000e+00
8.47786061e+02
0.00000000e+00
0.00000000e+00
9.52358835e+02
0.00000000e+00
0.00000000e+00
1.00774590e+03
0.00000000e+00
0.00000000e+00
0.00000000e+00
0.00000000e+00
0.00000000e+00
0.00000000e+00
5.91113988e+02
0.00000000e+00
0.00000000e+00
0.00000000e+00
0.00000000e+00
0.00000000e+00
0.00000000e+00
0.00000000e+00
0.00000000e+00
0.00000000e+00
9.18572311e+02
7.45794244e+02
0.00000000e+00
9.97155396e+02
0.00000000e+00
8.15112061e+02
0.00000000e+00
0.00000000e+00
0.00000000e+00
0.00000000e+00
0.00000000e+00
0.00000000e+00
5.48507436e+02
0.00000000e+00
0.00000000e+00
0.00000000e+00
4.83017968e+02
0.00000000e+00
5.88838560e+02
0.00000000e+00
0.00000000e+00
0.00000000e+00
0.00000000e+00
9.76323287e+02
0.00000000e+00
0.00000000e+00
8.44720912e+02
7.67643103e+02
0.00000000e+00
0.00000000e+00
0.00000000e+00
0.00000000e+00
6.49654479e+02
7.84222925e+02
0.00000000e+00
0.00000000e+00
0.00000000e+00
6.99644817e+02
0.00000000e+00
0.00000000e+00
0.00000000e+00
0.00000000e+00
9.37136756e+02
7.81206557e+02
0.00000000e+00
0.00000000e+00
0.00000000e+00
9.05095215e+02
0.00000000e+00
0.00000000e+00
0.00000000e+00
0.00000000e+00
0.00000000e+00
0.00000000e+00
0.00000000e+00
0.00000000e+00
0.00000000e+00
7.36820221e+02
0.00000000e+00
0.00000000e+00
0.00000000e+00
0.00000000e+00
8.53347051e+02
8.65074006e+02
9.64593054e+02
0.00000000e+00
0.00000000e+00
0.00000000e+00
8.94522870e+02
0.00000000e+00
0.00000000e+00
0.00000000e+00
1.11207282e+03
0.00000000e+00
0.00000000e+00
0.00000000e+00
6.39861990e+02
1.16167375e+03
5.83832697e+02
0.00000000e+00
8.88739950e+02
8.75622897e+02
0.00000000e+00
0.00000000e+00
7.65808503e+02
0.00000000e+00
0.00000000e+00
0.00000000e+00
9.50785154e+02
9.83116813e+02
7.00871163e+02
0.00000000e+00
0.00000000e+00
0.00000000e+00
0.00000000e+00
0.00000000e+00
0.00000000e+00
0.00000000e+00
9.60282689e+02
0.00000000e+00
6.49469528e+02
7.39463288e+02
7.23337859e+02
0.00000000e+00
0.00000000e+00
9.09620832e+02
7.15964752e+02
0.00000000e+00
0.00000000e+00
1.05814059e+03
1.22105433e+03
1.20982099e+03
8.54567703e+02
1.29658758e+03
0.00000000e+00
7.59710597e+02
0.00000000e+00
0.00000000e+00
0.00000000e+00
1.01893563e+03
7.19672899e+02
0.00000000e+00
7.81161018e+02
8.92488019e+02
8.50882446e+02
0.00000000e+00
8.57345745e+02
8.65173250e+02
8.48962106e+02
8.94452544e+02
1.25618121e+03
1.29131398e+03
1.40800045e+03
1.51012866e+03
0.00000000e+00
9.76539694e+02
9.58767739e+02
0.00000000e+00
0.00000000e+00
0.00000000e+00
0.00000000e+00
0.00000000e+00
7.32051412e+02
6.80278287e+02
8.79003115e+02
0.00000000e+00
9.36613291e+02
0.00000000e+00
9.28161602e+02
8.87460225e+02
0.00000000e+00
0.00000000e+00
1.47502731e+03
1.60189918e+03
1.73017738e+03
1.55624768e+03
1.09827261e+03
7.89751635e+02
7.78757699e+02
0.00000000e+00
0.00000000e+00
0.00000000e+00
0.00000000e+00
0.00000000e+00
0.00000000e+00
0.00000000e+00
8.06010215e+02
6.82131218e+02
8.06103458e+02
0.00000000e+00
0.00000000e+00
0.00000000e+00
6.95341287e+02
0.00000000e+00
1.38489813e+03
1.75456594e+03
1.75430356e+03
1.36807634e+03
0.00000000e+00
0.00000000e+00
0.00000000e+00
0.00000000e+00
0.00000000e+00
0.00000000e+00
0.00000000e+00
7.91162343e+02
7.38326596e+02
6.86610102e+02
0.00000000e+00
0.00000000e+00
0.00000000e+00
0.00000000e+00
0.00000000e+00
7.43290123e+02
1.59715803e+03
1.57652328e+03
1.74578572e+03
1.54473584e+03
9.43050763e+02
0.00000000e+00
0.00000000e+00
0.00000000e+00
7.11483417e+02
8.75229183e+02
9.05585247e+02
1.02581856e+03
9.30329125e+02
8.57698878e+02
0.00000000e+00
0.00000000e+00
0.00000000e+00
0.00000000e+00
7.14943890e+02
0.00000000e+00
1.27742346e+03
1.52338751e+03
0.00000000e+00
1.40687523e+03
9.66295727e+02
0.00000000e+00
8.31607689e+02
0.00000000e+00
0.00000000e+00
6.95043002e+02
1.04828061e+03
0.00000000e+00
9.38817081e+02
9.64384638e+02
9.45411207e+02
0.00000000e+00
5.82509464e+02
0.00000000e+00
0.00000000e+00
0.00000000e+00
9.27389342e+02
1.24575519e+03
1.39299756e+03
1.39157148e+03
1.02334700e+03
0.00000000e+00
0.00000000e+00
0.00000000e+00
0.00000000e+00
0.00000000e+00
0.00000000e+00
6.52398774e+02
0.00000000e+00
1.03801849e+03
9.28175166e+02
0.00000000e+00
8.37481626e+02
0.00000000e+00
6.49681185e+02
6.75472970e+02
6.79856968e+02
0.00000000e+00
1.17206698e+03
8.40759708e+02
9.48552131e+02
1.10582641e+03
0.00000000e+00
0.00000000e+00
0.00000000e+00
0.00000000e+00
0.00000000e+00
1.02980613e+03
1.13493738e+03
1.16846419e+03
0.00000000e+00
0.00000000e+00
8.35002280e+02
9.00975655e+02
7.11026742e+02
0.00000000e+00
0.00000000e+00
0.00000000e+00
6.37323408e+02
8.18184393e+02
1.07906643e+03
0.00000000e+00
0.00000000e+00
0.00000000e+00
0.00000000e+00
0.00000000e+00
0.00000000e+00
0.00000000e+00
0.00000000e+00
9.82478467e+02
1.23153766e+03
0.00000000e+00
0.00000000e+00
9.96187651e+02
7.82236731e+02
0.00000000e+00
0.00000000e+00
0.00000000e+00
0.00000000e+00
0.00000000e+00
0.00000000e+00
0.00000000e+00
6.83871241e+02
0.00000000e+00
4.82294645e+02
0.00000000e+00
0.00000000e+00
0.00000000e+00
0.00000000e+00
0.00000000e+00
0.00000000e+00
1.06257640e+03
0.00000000e+00
0.00000000e+00
1.10450520e+03
1.07800506e+03
0.00000000e+00
9.10905742e+02
3.75625092e+02
0.00000000e+00
0.00000000e+00
0.00000000e+00
0.00000000e+00
0.00000000e+00
0.00000000e+00
5.86320782e+02
5.19032572e+02
0.00000000e+00
0.00000000e+00
0.00000000e+00
0.00000000e+00
8.24943143e+02
1.26883804e+03
0.00000000e+00
0.00000000e+00
9.91366638e+02
1.02365162e+03
8.72505449e+02
0.00000000e+00
0.00000000e+00
0.00000000e+00
0.00000000e+00
0.00000000e+00
0.00000000e+00
0.00000000e+00
4.37090472e+02
0.00000000e+00
5.44819676e+02
0.00000000e+00
0.00000000e+00
0.00000000e+00
0.00000000e+00
0.00000000e+00
1.24718623e+03
0.00000000e+00
0.00000000e+00
0.00000000e+00
0.00000000e+00
9.56376098e+02
0.00000000e+00
5.06700215e+02
0.00000000e+00
0.00000000e+00
0.00000000e+00
0.00000000e+00
0.00000000e+00
0.00000000e+00
0.00000000e+00
0.00000000e+00
0.00000000e+00
0.00000000e+00
0.00000000e+00
0.00000000e+00
0.00000000e+00
1.15589527e+03
1.07876855e+03
0.00000000e+00
0.00000000e+00
0.00000000e+00
9.83847593e+02
5.25033963e+02
0.00000000e+00
7.27527775e+02
0.00000000e+00
8.00520767e+02
0.00000000e+00
0.00000000e+00
0.00000000e+00
0.00000000e+00
0.00000000e+00
0.00000000e+00
0.00000000e+00
0.00000000e+00
0.00000000e+00
0.00000000e+00
0.00000000e+00
0.00000000e+00
5.77150328e+02
0.00000000e+00
0.00000000e+00
0.00000000e+00
1.31966460e+03
7.20107489e+02
9.58511249e+02
1.30630431e+03
1.58698320e+03
1.51166237e+03
1.26795913e+03
7.39833516e+02
8.29725868e+02
1.90829161e+03
0.00000000e+00
1.33404281e+03
1.38043256e+03
7.31581449e+02
7.40719649e+02
0.00000000e+00
1.12324725e+03
1.36624206e+03
1.96594040e+03
1.11382775e+03
1.54062463e+03
1.07983431e+03
1.33679535e+03
1.01331297e+03
1.77573767e+03
2.51970058e+03
2.44659387e+03
8.74928701e+02
2.50840389e+03
2.28517062e+03
1.53626188e+03
1.38476280e+03
1.27940670e+03
1.61077354e+03
1.24286041e+03
9.02331289e+02
0.00000000e+00
1.42324351e+03
1.44106830e+03
1.81792789e+03
5.37119424e+02
1.16633830e+03
1.98803383e+03
9.08230037e+02
0.00000000e+00
1.02616066e+03
9.41916553e+02
1.01329753e+03
0.00000000e+00
5.91199344e+02
2.36943247e+03
6.68578282e+02
9.10362470e+02
1.30416650e+03
1.55961765e+03
1.35787547e+03
0.00000000e+00
0.00000000e+00
1.20724993e+03
2.16886371e+03
1.03573155e+03
1.18843838e+03
1.59743991e+03
1.10386401e+03
1.37170141e+03
9.63042061e+02
1.45690780e+03
1.21673997e+03
1.40993403e+03
1.89934811e+03
1.32453529e+03
1.09701183e+03
7.36929922e+02
1.95069513e+03
1.24125665e+03
1.03521468e+03
2.22935003e+03
1.03537867e+03
6.47333223e+02
1.48470291e+03
1.94177828e+03
1.77878191e+03
2.12028991e+03
2.09303909e+03
1.72581489e+03
8.12377887e+02
1.18795529e+03
1.98885226e+03
2.23430590e+03
2.18310421e+03
1.24531310e+03
1.84776643e+03
0.00000000e+00
2.37900372e+03
4.93852194e+02
9.08211530e+02
1.42429906e+03
1.30876347e+03
1.05108336e+03
0.00000000e+00
1.91237232e+03
1.30506531e+03
1.31618691e+03
2.28777502e+03
0.00000000e+00
2.34260869e+03
1.35829403e+03
7.26447500e+02
9.82078346e+02
2.44566555e+03
8.27267689e+02
1.98304392e+03
1.93140661e+03
1.20492475e+03
0.00000000e+00
8.72941930e+02
8.20500533e+02
8.58459062e+02
1.58861567e+03
1.23486450e+03
0.00000000e+00
1.60532770e+03
1.41472625e+03
1.53517859e+03
1.67087521e+03
1.12525786e+03
1.84646607e+03
1.33287114e+03
7.72683850e+02
1.92401385e+03
7.30445473e+02
1.80205888e+03
2.40958721e+03
1.47110132e+03
1.44503991e+03
1.85389099e+03
1.28342715e+03
5.21535065e+02
5.45912107e+02
1.18776513e+03
0.00000000e+00
0.00000000e+00
1.38021729e+03
7.95063932e+02
1.43732036e+03
1.46301895e+03
1.82722972e+03
1.07110814e+03
2.19038860e+03
1.67244971e+03
1.81862164e+03
1.33681616e+03
9.84822499e+02
2.39977785e+03
1.54406093e+03
2.04966759e+03
2.19152960e+03
5.52790938e+02
4.26335070e+02
0.00000000e+00
7.85544253e+02
1.04710176e+03
8.71282744e+02
2.02239373e+03
0.00000000e+00
1.09198111e+03
1.74715099e+03
1.71144488e+03
1.11090783e+03
1.83874055e+03
2.21758743e+03
1.16519978e+03
1.86146933e+03
2.42857531e+03
1.38550210e+03
1.99731023e+03
7.05457771e+02
5.57939303e+02
2.59126448e+03
2.53168484e+03
0.00000000e+00
9.06834945e+02
1.16933573e+03
7.08579021e+02
2.10521528e+03
6.64884485e+02
1.28684770e+03
1.20084436e+03
6.87009225e+02
6.62249405e+02
6.97692576e+02
1.93992299e+03
9.97107787e+02
1.03553733e+03
1.17353582e+03
2.54523076e+03
9.64962486e+02
6.93973785e+02
9.41881920e+02
4.30158253e+02
7.19696815e+02
0.00000000e+00
6.47495337e+02
1.09589100e+03
0.00000000e+00
1.61017706e+03
0.00000000e+00
1.36048637e+03
1.17534875e+03
1.27501865e+03
7.54354381e+02
1.76164686e+03
1.41407598e+03
1.96171413e+03
9.33764311e+02
2.24369842e+03
8.98894580e+02
2.27876667e+03
6.34742899e+02
5.26042266e+02
1.97426377e+03
2.48393565e+03
0.00000000e+00
1.47520989e+03
9.78849607e+02
0.00000000e+00
1.49587742e+03
0.00000000e+00
1.21705596e+03
1.17414577e+03
9.99669944e+02
1.00430046e+03
6.14761361e+02
2.24250424e+03
1.54201064e+03
2.32898384e+03
1.61714378e+03
1.82843750e+03
6.39544453e+02
1.92841970e+03
5.87195150e+02
3.53676359e+02
3.44465686e+02
6.21435321e+02
7.43235683e+02
1.18224392e+03
1.04140380e+03
1.54441828e+03
0.00000000e+00
1.89316886e+03
1.76636847e+03
1.15954983e+03
1.14672779e+03
1.63657612e+03
1.88302640e+03
1.03828980e+03
1.45609679e+03
2.41863708e+03
1.04855962e+03
2.38670134e+03
9.22235471e+02
9.86752289e+02
8.08830706e+02
2.57122923e+03
0.00000000e+00
2.39904401e+03
1.04943585e+03
1.04313590e+03
1.34585896e+03
0.00000000e+00
1.49867152e+03
1.21797687e+03
1.17806957e+03
1.36959210e+03
1.31935759e+03
1.97791766e+03
8.36097284e+02
9.47175544e+02
6.82787958e+02
9.98270815e+02
6.42820262e+02
6.33479028e+02
8.26265249e+02
1.31451686e+03
1.51107223e+03
0.00000000e+00
3.52364807e+02
1.29232709e+03
1.20227339e+03
1.10058975e+03
1.07763253e+03
1.53680072e+03
1.52516879e+03
1.37010590e+03
1.77248292e+03
2.22380635e+03
2.08230522e+03
7.16443305e+02
2.27959511e+03
5.83182075e+02
6.04664465e+02
6.08625137e+02
1.32662807e+03
1.57680785e+03
2.25098110e+03
4.96722569e+02
9.33197266e+02
4.24954266e+02
1.18420054e+03
1.30928278e+03
1.26485299e+03
1.33444183e+03
1.18239240e+03
1.20456512e+03
0.00000000e+00
1.29602645e+03
1.06285671e+03
1.02917900e+03
1.08531567e+03
1.12057062e+03
1.94474384e+03
9.01983223e+02
5.62826149e+02
6.51736208e+02
4.03644005e+02
1.96542919e+03
1.10250491e+03
1.54647444e+03
5.82098117e+02
1.11144298e+03
0.00000000e+00
1.42830889e+03
1.54739686e+03
1.19434071e+03
2.07270490e+03
1.26999949e+03
1.40001903e+03
9.15135137e+02
1.95473946e+03
8.55632212e+02
6.61227554e+02
5.38142778e+02
1.48116337e+03
1.08050122e+03
2.31855725e+03
1.04881326e+03
2.37937786e+03
1.07679101e+03
1.77913378e+03
1.16369637e+03
0.00000000e+00
1.36564139e+03
1.31284666e+03
1.22891685e+03
1.43722874e+03
1.29350224e+03
1.73975819e+03
1.29819986e+03
1.11731221e+03
1.61682315e+03
6.64292071e+02
1.29703663e+03
7.24298465e+02
2.25958225e+03
1.96771061e+03
9.58690756e+02
7.67949591e+02
1.17567320e+03
1.62247582e+03
7.64405442e+02
1.12605785e+03
8.69151178e+02
1.41112265e+03
1.28464580e+03
1.00755838e+03
1.33968628e+03
1.53141740e+03
1.49014012e+03
1.37381461e+03
0.00000000e+00
0.00000000e+00
0.00000000e+00
4.09197195e+02
0.00000000e+00
0.00000000e+00
0.00000000e+00
1.06405315e+03
1.26345153e+03
1.19280101e+03
1.38374424e+03
1.36545549e+03
1.45706438e+03
0.00000000e+00
1.28212065e+03
2.00372545e+03
1.01485605e+03
1.44456795e+03
1.25968947e+03
1.53915968e+03
1.46333054e+03
1.32923028e+03
1.35175619e+03
8.94506902e+02
1.78208417e+03
1.09509606e+03
2.13780311e+03
1.02066949e+03
1.23171169e+03
1.25232275e+03
1.47974003e+03
1.42061954e+03
1.48281998e+03
2.06804554e+03
0.00000000e+00
0.00000000e+00
9.05236015e+02
8.20758096e+02
0.00000000e+00
9.52674338e+02
1.06250562e+03
0.00000000e+00
0.00000000e+00
0.00000000e+00
1.04526218e+03
0.00000000e+00
0.00000000e+00
0.00000000e+00
0.00000000e+00
0.00000000e+00
0.00000000e+00
0.00000000e+00
0.00000000e+00
0.00000000e+00
0.00000000e+00
0.00000000e+00
0.00000000e+00
0.00000000e+00
0.00000000e+00
0.00000000e+00
1.12283159e+03
0.00000000e+00
0.00000000e+00
0.00000000e+00
6.11189442e+02
1.03382770e+03
9.21735292e+02
1.61676673e+03
8.95732594e+02
0.00000000e+00
6.92502452e+02
6.26198200e+02
7.78543438e+02
1.34934551e+03
7.36611520e+02
7.95614844e+02
0.00000000e+00
0.00000000e+00
1.74119740e+03
1.46121178e+03
1.29609874e+03
8.01921395e+02
1.22507034e+03
1.16741224e+03
9.37597003e+02
2.15108337e+03
0.00000000e+00
1.17240727e+03
1.45835807e+03
8.01370539e+02
0.00000000e+00
8.37795178e+02
1.82857250e+03
2.39833292e+03
2.04345865e+03
1.42567317e+03
1.13566592e+03
0.00000000e+00
0.00000000e+00
1.49470479e+03
1.78406081e+03
2.25167299e+03
1.60357240e+03
2.27440822e+03
2.26955722e+03
1.05511704e+03
1.92178870e+03
1.32445207e+03
1.18009713e+03
1.20112798e+03
1.22984364e+03
1.37733787e+03
1.57462813e+03
2.46254923e+03
9.75055510e+02
7.73350143e+02
1.09774599e+03
1.22603670e+03
0.00000000e+00
0.00000000e+00
1.43431831e+03
2.15863464e+03
5.04538802e+02
2.29991218e+03
9.16166991e+02
1.52853648e+03
1.61007695e+03
1.61546696e+03
8.32293686e+02
9.37684231e+02
1.76232220e+03
1.75909018e+03
0.00000000e+00
1.30697301e+03
1.02227604e+03
1.06752278e+03
1.98421556e+03
1.07433054e+03
1.39790610e+03
8.67957012e+02
0.00000000e+00
1.64183428e+03
1.36890978e+03
7.55132203e+02
1.55970281e+03
2.15391896e+03
1.20327199e+03
1.47289927e+03
1.11191848e+03
1.94383634e+03
1.08640744e+03
7.94389160e+02
1.01910895e+03
1.59192170e+03
1.08368803e+03
1.25020068e+03
1.37936212e+03
8.92360612e+02
2.36723399e+03
1.60927606e+03
0.00000000e+00
7.82895166e+02
1.51873782e+03
1.75793028e+03
1.57107803e+03
2.20169065e+03
1.42529299e+03
2.01698841e+03
1.72431700e+03
1.07646580e+03
1.31625326e+03
9.34249896e+02
2.38222886e+03
1.20667337e+03
8.50127382e+02
1.63580379e+03
1.10486702e+03
1.43882939e+03
1.05141098e+03
1.07408649e+03
1.04803633e+03
1.00132694e+03
9.44908770e+02
1.59434914e+03
1.25612120e+03
8.58508242e+02
2.06215004e+03
2.27684066e+03
1.36437792e+03
1.70103434e+03
1.22065721e+03
2.37547457e+03
1.85600496e+03
5.95565691e+02
9.63684786e+02
6.87051962e+02
2.25942585e+03
2.03033523e+03
1.63331493e+03
2.54279369e+03
1.32997123e+03
1.16580734e+03
1.13925036e+03
0.00000000e+00
1.00068362e+03
2.10191007e+03
2.07144728e+03
1.86994523e+03
1.83475937e+03
1.04011390e+03
1.50252638e+03
1.06587151e+03
1.78121721e+03
2.43342526e+03
1.55801507e+03
1.59847150e+03
2.42728620e+03
2.55009478e+03
9.18774720e+02
2.45119074e+03
2.58741099e+03
2.31235798e+03
1.06562907e+03
9.25968497e+02
7.67088733e+02
0.00000000e+00
9.27272571e+02
1.42978611e+03
2.00464727e+03
9.43954294e+02
2.16424521e+03
1.20704916e+03
1.59740979e+03
1.88229510e+03
2.31621477e+03
1.57473208e+03
9.25929464e+02
1.34931722e+03
2.28388727e+03
8.29804695e+02
2.53973596e+03
1.95058599e+03
1.31699004e+03
1.05362496e+03
0.00000000e+00
1.02455090e+03
9.67435838e+02
2.00581870e+03
1.20878290e+03
2.07517550e+03
2.04995314e+03
2.20075234e+03
1.04812614e+03
7.69874540e+02
1.77172492e+03
1.10782129e+03
2.27072055e+03
1.40379279e+03
8.57887785e+02
1.98938406e+03
1.18850219e+03
1.49297162e+03
8.32019084e+02
1.08914811e+03
0.00000000e+00
1.01428751e+03
0.00000000e+00
0.00000000e+00
1.72688188e+03
1.26573803e+03
1.88348365e+03
2.26247432e+03
1.62115739e+03
1.32839408e+03
2.00163836e+03
1.99591053e+03
1.58228518e+03
2.30257163e+03
5.42607543e+02
2.56585466e+03
2.25073958e+03
1.46978922e+03
1.48978281e+03
1.07490353e+03
1.20426672e+03
0.00000000e+00
0.00000000e+00
0.00000000e+00
0.00000000e+00
1.84698760e+03
1.36981703e+03
1.84699894e+03
1.25797993e+03
1.38511610e+03
6.85053704e+02
2.18436365e+03
2.07643108e+03
1.67102260e+03
1.50810871e+03
1.03044668e+03
1.99427214e+03
1.44636461e+03
1.49567968e+03
1.12122307e+03
1.58421538e+03
2.57095198e+03
0.00000000e+00
0.00000000e+00
7.42939319e+02
0.00000000e+00
1.18639360e+03
1.39535384e+03
1.83327291e+03
1.53069935e+03
1.84295904e+03
2.18881843e+03
2.12550614e+03
2.22818371e+03
1.34835759e+03
2.27653989e+03
8.49638456e+02
2.46009728e+03
1.25520556e+03
2.60054385e+03
2.40440253e+03
1.31973692e+03
2.56556979e+03
0.00000000e+00
1.22806862e+03
1.09800929e+03
0.00000000e+00
1.93677696e+03
1.39713210e+03
1.56252884e+03
1.44605464e+03
1.59659826e+03
1.31572225e+03
1.60504086e+03
1.98229408e+03
9.25547830e+02
2.16832645e+03
2.31187525e+03
2.49855510e+03
5.37427140e+02
9.92442624e+02
2.53744305e+03
1.79778529e+03
1.17226692e+03
1.17555616e+03
1.08647387e+03
1.16456477e+03
1.85490962e+03
1.89328732e+03
1.72025600e+03
2.09589016e+03
2.05382308e+03
1.40866936e+03
1.11011871e+03
2.23523624e+03
1.95094608e+03
1.54751625e+03
2.34902882e+03
2.03153124e+03
5.70319796e+02
2.52803687e+03
2.43583469e+03
6.73522965e+02
1.99299554e+03
2.43990705e+03
5.17236510e+02
1.26367041e+03
1.22799157e+03
1.51446001e+03
2.06315307e+03
1.80150761e+03
1.55677494e+03
1.21787299e+03
2.28728200e+03
1.49226016e+03
2.10486933e+03
1.93218307e+03
7.85814110e+02
1.74484518e+03
2.04191630e+03
1.39092910e+03
2.04740237e+03
2.23457121e+03
2.24261349e+03
1.92417389e+03
1.54545546e+03
8.92382383e+02
1.00886620e+03
1.33751567e+03
2.01397397e+03
1.46047044e+03
2.06715623e+03
1.19872006e+03
1.36815227e+03
1.31241189e+03
1.24527993e+03
1.99454142e+03
2.29257784e+03
1.95180660e+03
1.55305317e+03
1.36617401e+03
9.34617264e+02
2.17968416e+03
1.17847442e+03
2.38461477e+03
2.40399554e+03
2.36048015e+03
1.37389772e+03
0.00000000e+00
1.33766620e+03
1.17101154e+03
1.44369031e+03
1.43739411e+03
1.37053550e+03
2.14277087e+03
2.08485792e+03
1.90890297e+03
1.42057905e+03
1.16886926e+03
9.50529541e+02
9.66509152e+02
9.40074208e+02
1.34686305e+03
1.65878273e+03
2.35033904e+03
2.24433450e+03
1.93834012e+03
1.64209919e+03
1.27006213e+03
5.34796448e+02
1.19605959e+03
1.23132784e+03
1.97503290e+03
1.83058439e+03
1.50620642e+03
1.63163989e+03
1.58093854e+03
2.19456539e+03
1.74263642e+03
1.26048404e+03
1.24000780e+03
2.20988810e+03
2.01041140e+03
1.63375454e+03
1.73968621e+03
2.21675672e+03
2.38236346e+03
2.37684722e+03
2.12638351e+03
1.47376132e+03
0.00000000e+00
1.20064157e+03
1.29314093e+03
1.08998490e+03
1.78297073e+03
2.12010008e+03
1.86139999e+03
1.53636675e+03
0.00000000e+00
9.16174784e+02
0.00000000e+00
0.00000000e+00
8.27958513e+02
0.00000000e+00
7.94434037e+02
1.48727518e+03
1.58191239e+03
1.66689700e+03
1.51955685e+03
2.01478263e+03
1.38772827e+03
0.00000000e+00
0.00000000e+00
0.00000000e+00
0.00000000e+00
0.00000000e+00
9.77296994e+02
9.40773824e+02
0.00000000e+00
0.00000000e+00
1.01747334e+03
1.24680336e+03
0.00000000e+00
1.11810281e+03
1.00888634e+03
0.00000000e+00
7.45349292e+02
6.21268223e+02
0.00000000e+00
0.00000000e+00
0.00000000e+00
0.00000000e+00
0.00000000e+00
0.00000000e+00
7.87749106e+02
0.00000000e+00
2.22893283e+03
1.34539675e+03
1.51031201e+03