# vtk DataFile Version 3.0
MPS 3D Simulation Step 9800
ASCII
DATASET UNSTRUCTURED_GRID
POINTS 20213 double
-1.19835424e-03 3.73415296e-04 -7.39795714e-04
-1.06374013e-03 1.54882208e-04 -8.05443854e-04
-9.83349312e-04 2.96187423e-04 -9.85645454e-04
-9.31758774e-04 3.22712810e-04 -1.04272910e-03
-8.93889096e-04 1.62589756e-04 -9.88398321e-04
-8.78042583e-04 3.59867499e-04 -1.09438745e-03
-6.64215265e-04 2.24260866e-04 -1.18520139e-03
-5.36059181e-04 2.32897543e-04 -1.26398146e-03
-4.59595222e-04 4.84987628e-04 -1.21877495e-03
-3.69628887e-04 8.77613227e-04 -1.05815745e-03
-2.00581921e-04 9.20214139e-04 -1.01413808e-03
-3.76146972e-04 9.72497447e-04 -1.12403821e-03
-1.06362474e-04 7.75867018e-04 -1.00089402e-03
-1.03075923e-04 2.35203569e-04 -1.36855991e-03
-5.21030392e-06 2.41468520e-04 -1.37484561e-03
5.11655350e-04 1.23770966e-04 -1.20861520e-03
1.47889385e-04 7.54097436e-04 -6.03281750e-04
4.64645777e-04 2.71460150e-04 -1.30083858e-03
5.10880712e-04 8.83393050e-04 -1.05278470e-03
7.44543803e-04 9.95437689e-04 -8.22042962e-04
1.12568375e-03 7.75481586e-04 -6.51699511e-04
-1.16835712e-03 3.02004042e-04 -7.62666415e-04
-1.11639260e-03 2.43591771e-04 -8.05389874e-04
-1.04939758e-03 3.43237784e-04 -9.34776372e-04
-9.46338651e-04 4.04838321e-04 -1.04936929e-03
-8.96227934e-04 5.29749816e-04 -1.09675278e-03
-1.01391484e-03 4.56899706e-04 -9.96640364e-04
-8.21308357e-04 4.01388185e-04 -1.14359397e-03
-6.20380064e-04 3.49029317e-04 -1.25193141e-03
-3.90502843e-04 2.53935229e-04 -1.33117129e-03
-4.32482255e-04 1.25425939e-04 -1.25485175e-03
-1.68494955e-04 2.93060017e-04 -1.38531587e-03
1.38079600e-04 2.04340702e-04 -1.35181652e-03
1.57086117e-04 4.10628151e-04 -1.40617061e-03
2.15175042e-04 3.43674562e-04 -1.38735952e-03
2.74647195e-04 2.84577107e-04 -1.36007164e-03
4.57038259e-04 1.63992978e-04 -1.25871353e-03
4.22540955e-04 3.37799544e-04 -1.33344253e-03
3.97609711e-04 8.61073620e-04 -1.21741675e-03
3.65697854e-04 2.72537421e-04 -1.33448134e-03
5.13087808e-04 2.21356734e-04 -1.26636858e-03
8.14936208e-04 1.28111838e-04 -1.02407766e-03
-1.13725435e-03 3.37171302e-04 -8.23806428e-04
-1.10589468e-03 3.87744165e-04 -8.81151736e-04
-1.08812324e-03 5.91670126e-04 -9.24079654e-04
-8.58749963e-04 2.77630345e-04 -1.08110692e-03
-1.00155994e-03 3.76369903e-04 -9.94432958e-04
-8.88307535e-04 4.45832457e-04 -1.09934828e-03
-6.12266179e-04 2.66627276e-04 -1.23385909e-03
-7.37989341e-04 2.69556557e-04 -1.15802035e-03
-4.73848290e-04 3.60396489e-04 -1.32059283e-03
-3.16251039e-04 2.16880648e-04 -1.33682207e-03
-1.82332339e-04 3.97581785e-04 -1.40328245e-03
-6.18792162e-05 2.99713064e-04 -1.39475645e-03
9.70955441e-05 4.72472770e-04 -1.41484397e-03
2.77024619e-04 3.91727098e-04 -1.38617758e-03
2.37322126e-04 2.11177336e-04 -1.34179352e-03
4.09854321e-04 4.87891632e-04 -1.36527156e-03
4.59109492e-04 4.15851595e-04 -1.33435097e-03
3.76775638e-04 4.12293029e-04 -1.36545291e-03
6.50211161e-04 3.20913555e-04 -1.23274877e-03
7.35351938e-04 2.04353032e-04 -1.14453224e-03
7.49307501e-04 1.28232768e-04 -1.08237272e-03
-1.20898286e-03 4.61629982e-04 -7.38691854e-04
-1.12727755e-03 4.66299308e-04 -8.65587370e-04
-1.08378234e-03 5.05869584e-04 -9.26208825e-04
-9.56594464e-04 4.89794881e-04 -1.04999090e-03
-8.23310436e-04 4.83418212e-04 -1.14978820e-03
-7.50391490e-04 3.56846771e-04 -1.18081376e-03
-6.84849985e-04 3.10443657e-04 -1.20795526e-03
-3.97180598e-04 3.35921266e-04 -1.34647679e-03
-3.19311962e-04 3.79245491e-04 -1.37472416e-03
-3.84874543e-04 1.73222402e-04 -1.30396701e-03
-1.01720928e-04 4.42563550e-04 -1.41176796e-03
-1.85061346e-04 2.11570021e-04 -1.35514646e-03
-3.86089871e-05 3.81937446e-04 -1.41153727e-03
2.18698895e-05 3.21485845e-04 -1.39898469e-03
2.26740221e-04 4.54051154e-04 -1.40216633e-03
3.36473513e-04 3.42659282e-04 -1.36300975e-03
4.35329739e-04 5.67673488e-04 -1.36249692e-03
6.77069236e-04 3.97993906e-04 -1.22607973e-03
6.95669863e-04 2.58490369e-04 -1.19059280e-03
7.77043450e-04 2.74352441e-04 -1.13912401e-03
8.42048935e-04 3.18727401e-04 -1.10724527e-03
-1.21851223e-03 5.47227543e-04 -7.29330087e-04
-1.03812401e-03 6.14261771e-04 -9.80689500e-04
-1.06416358e-03 4.25280474e-04 -9.40814961e-04
-8.34151373e-04 5.66336751e-04 -1.14126303e-03
-6.93454192e-04 4.82181165e-04 -1.23006323e-03
-7.55371229e-04 4.40580403e-04 -1.19106413e-03
-3.98157956e-04 4.19080731e-04 -1.35229813e-03
-3.28526776e-04 4.68700210e-04 -1.37638933e-03
-2.41294564e-04 3.38672322e-04 -1.38595649e-03
-1.78534900e-04 4.85623354e-04 -1.40629362e-03
-1.08724660e-04 5.39403373e-04 -1.41332763e-03
-2.45775705e-04 2.55511991e-04 -1.36416113e-03
-3.91886620e-05 4.99013783e-04 -1.41767691e-03
2.01841279e-04 5.92692006e-04 -1.40524850e-03
1.52417593e-05 4.40985833e-04 -1.41810726e-03
3.16914509e-04 4.69054505e-04 -1.38742132e-03
3.52595590e-04 5.45334209e-04 -1.38588072e-03
5.56630720e-04 2.95237734e-04 -1.26776272e-03
7.28396557e-04 3.32815119e-04 -1.18861913e-03
7.95199726e-04 3.63317513e-04 -1.15132053e-03
8.15569560e-04 4.51305567e-04 -1.14399591e-03
-1.22944459e-03 6.32345200e-04 -7.16716502e-04
-1.13213540e-03 5.53819257e-04 -8.67118820e-04
-9.81473435e-04 6.49654220e-04 -1.02853965e-03
-1.03086593e-03 5.33879897e-04 -9.85353411e-04
-7.63996666e-04 5.28087074e-04 -1.19128791e-03
-6.19585549e-04 4.38848425e-04 -1.26254601e-03
-5.47395327e-04 3.97954410e-04 -1.29091521e-03
-4.74408157e-04 4.45538000e-04 -1.32327673e-03
-2.55605043e-04 4.32343204e-04 -1.39283724e-03
-3.33594485e-04 5.53531378e-04 -1.37542723e-03
-2.59015977e-04 5.19777864e-04 -1.39508934e-03
-1.20087785e-04 3.51775132e-04 -1.40465672e-03
1.70101185e-04 5.13846993e-04 -1.41086052e-03
2.62154307e-04 5.34012582e-04 -1.40145432e-03
8.17799524e-05 2.62354597e-04 -1.37766721e-03
1.73432938e-04 7.36938899e-04 -1.39160045e-03
2.92008501e-04 6.11802003e-04 -1.39501430e-03
4.86816488e-04 4.96558146e-04 -1.33412575e-03
5.93789542e-04 3.74035930e-04 -1.26737141e-03
7.46673069e-04 4.25190609e-04 -1.18687917e-03
8.92722721e-04 4.81534576e-04 -1.08738210e-03
-1.18383449e-03 5.92463244e-04 -7.91752611e-04
-1.17142819e-03 5.08233283e-04 -8.03899910e-04
-1.04272536e-03 6.97516033e-04 -9.65246935e-04
-9.11404500e-04 6.11320611e-04 -1.08593364e-03
-7.74033731e-04 6.12228231e-04 -1.17954527e-03
-6.26537566e-04 5.26242996e-04 -1.26253443e-03
-5.50585077e-04 4.84076308e-04 -1.29291971e-03
-4.03764753e-04 5.05219277e-04 -1.35027559e-03
-4.80916772e-04 5.34222237e-04 -1.32045818e-03
-4.16366866e-04 5.91426339e-04 -1.34481855e-03
-1.92413278e-04 5.73661902e-04 -1.40488876e-03
-2.80026839e-05 5.90567190e-04 -1.41637473e-03
3.80206509e-05 5.34370314e-04 -1.41751450e-03
1.09914996e-04 5.71271608e-04 -1.41341333e-03
1.37377566e-04 6.49827167e-04 -1.40538864e-03
5.09660415e-04 5.80681246e-04 -1.33189507e-03
4.55118373e-04 6.50633854e-04 -1.35508446e-03
5.40563877e-04 4.32339778e-04 -1.29908763e-03
5.65229042e-04 5.17635800e-04 -1.29454915e-03
8.41149490e-04 5.31178221e-04 -1.12878243e-03
7.96593080e-04 5.99342101e-04 -1.15975672e-03
-1.24006689e-03 7.12320655e-04 -6.99552816e-04
-1.14426980e-03 6.34422075e-04 -8.50643393e-04
-1.09725227e-03 6.70210153e-04 -9.09756716e-04
-9.73358759e-04 5.68426421e-04 -1.04027322e-03
-6.98664340e-04 5.68666694e-04 -1.22588980e-03
-5.58982606e-04 5.70144889e-04 -1.28889953e-03
-5.66867121e-04 6.57518427e-04 -1.28598584e-03
-4.91006292e-04 6.22297882e-04 -1.31633917e-03
-4.20866139e-04 6.78424306e-04 -1.34171197e-03
-3.44812315e-04 6.39852333e-04 -1.36881827e-03
-2.69988433e-04 6.13692882e-04 -1.39156156e-03
-1.20819039e-04 6.22968032e-04 -1.41063860e-03
-5.29432787e-05 6.68576380e-04 -1.41217818e-03
4.73056208e-05 6.29675730e-04 -1.41212988e-03
9.35830465e-05 7.20855891e-04 -1.40126020e-03
3.75504795e-04 6.28453274e-04 -1.37829542e-03
3.18745837e-04 6.94613596e-04 -1.38220956e-03
5.31653242e-04 6.61979872e-04 -1.32340372e-03
6.21182162e-04 4.60055279e-04 -1.26000738e-03
7.66109652e-04 5.18607004e-04 -1.17734964e-03
7.63952624e-04 7.26227922e-04 -1.17608343e-03
-1.19317481e-03 6.78336828e-04 -7.78885596e-04
-1.14938350e-03 7.19045482e-04 -8.34849129e-04
-1.09776311e-03 7.51220469e-04 -8.92529989e-04
-7.86400118e-04 6.93407349e-04 -1.16298589e-03
-7.11062137e-04 6.51309395e-04 -1.21654444e-03
-6.32739081e-04 6.12716826e-04 -1.25797068e-03
-5.78582853e-04 7.38564654e-04 -1.27483376e-03
-4.98620593e-04 7.09889400e-04 -1.31034011e-03
-4.25710894e-04 7.59650690e-04 -1.33538288e-03
-3.46155612e-04 7.23631504e-04 -1.36388651e-03
-2.70641290e-04 7.01497338e-04 -1.38346423e-03
-1.98834887e-04 6.63732592e-04 -1.40030745e-03
-1.26221166e-04 7.13747721e-04 -1.40310167e-03
-5.70174167e-05 7.62021388e-04 -1.39970887e-03
1.53764609e-05 7.06293144e-04 -1.40800122e-03
2.56511675e-04 7.58154989e-04 -1.38079204e-03
2.70113804e-04 8.41930707e-04 -1.36055633e-03
4.00379209e-04 7.16491962e-04 -1.36382101e-03
5.88357718e-04 6.01249656e-04 -1.29250748e-03
6.94936706e-04 4.88711037e-04 -1.22004634e-03
7.42709722e-04 6.50690002e-04 -1.19711619e-03
-1.19975828e-03 7.55039918e-04 -7.55101324e-04
-1.09873783e-03 8.25325050e-04 -8.62389888e-04
-9.84201853e-04 7.31505595e-04 -1.01389880e-03
-8.48567427e-04 6.48541239e-04 -1.12809183e-03
-7.96178364e-04 7.71792723e-04 -1.14272335e-03
-6.45689225e-04 6.94267453e-04 -1.24572978e-03
-6.55212657e-04 7.73507360e-04 -1.22827146e-03
-5.15084046e-04 7.90253650e-04 -1.29556952e-03
-4.45407676e-04 8.31872336e-04 -1.31473860e-03
-3.53074395e-04 8.05816173e-04 -1.35024186e-03
-2.76692879e-04 7.92364474e-04 -1.37164097e-03
-2.00620153e-04 7.54497766e-04 -1.39154664e-03
-1.34914302e-04 8.06490772e-04 -1.38828351e-03
-5.65747888e-05 8.44270796e-04 -1.38582312e-03
2.33738814e-05 7.90575199e-04 -1.39471293e-03
1.87434895e-04 8.22945360e-04 -1.37483635e-03
3.52773091e-04 8.65298715e-04 -1.33966822e-03
3.35769950e-04 7.80387406e-04 -1.36407887e-03
6.03829742e-04 6.83079354e-04 -1.28397371e-03
7.14504288e-04 5.77327794e-04 -1.21274053e-03
7.10853181e-04 7.98465943e-04 -1.19987976e-03
-1.15144322e-03 7.95982626e-04 -8.07702320e-04
-1.08940514e-03 9.01454226e-04 -8.33776470e-04
[...]
POINT_DATA 20213
SCALARS pressure double 1
LOOKUP_TABLE default
9.73989554e+02
0.00000000e+00
1.07062730e+03
0.00000000e+00
8.48678491e+02
0.00000000e+00
0.00000000e+00
1.18940794e+03
1.32764117e+03
1.52655674e+03
1.56441113e+03
1.45398155e+03
1.88152722e+03
1.15599967e+03
0.00000000e+00
0.00000000e+00
2.28911977e+03
1.42195280e+03
1.46873474e+03
1.38517121e+03
1.20471273e+03
0.00000000e+00
0.00000000e+00
1.16931053e+03
0.00000000e+00
9.69677145e+02
0.00000000e+00
1.02589850e+03
1.11696681e+03
1.42913347e+03
1.27613981e+03
1.03054353e+03
0.00000000e+00
7.94331519e+02
9.92461559e+02
0.00000000e+00
1.32503242e+03
0.00000000e+00
1.33789494e+03
0.00000000e+00
1.57711330e+03
1.34894926e+03
1.11473879e+03
1.15687428e+03
1.27506241e+03
9.37316996e+02
1.09039007e+03
0.00000000e+00
1.07294289e+03
8.97692265e+02
1.25470029e+03
1.40695886e+03
0.00000000e+00
1.01833371e+03
0.00000000e+00
0.00000000e+00
1.01758777e+03
0.00000000e+00
0.00000000e+00
0.00000000e+00
1.81631700e+03
1.71211013e+03
1.43570866e+03
1.07073525e+03
1.08225862e+03
0.00000000e+00
0.00000000e+00
1.01794550e+03
0.00000000e+00
1.05623115e+03
1.35721455e+03
1.31998581e+03
1.37657868e+03
6.54177304e+02
1.21612800e+03
0.00000000e+00
0.00000000e+00
0.00000000e+00
0.00000000e+00
1.12672577e+03
1.72588316e+03
1.89668569e+03
1.79783200e+03
1.56847109e+03
0.00000000e+00
1.21479193e+03
0.00000000e+00
1.06238827e+03
0.00000000e+00
1.08231659e+03
1.28264859e+03
0.00000000e+00
1.12698523e+03
0.00000000e+00
0.00000000e+00
0.00000000e+00
0.00000000e+00
7.70355308e+02
0.00000000e+00
0.00000000e+00
0.00000000e+00
1.73561992e+03
1.90479692e+03
1.62237692e+03
1.31010375e+03
1.23889873e+03
0.00000000e+00
1.13548220e+03
1.02461781e+03
1.03506613e+03
1.12933299e+03
1.27230978e+03
1.27106823e+03
0.00000000e+00
1.30489742e+03
1.17734770e+03
0.00000000e+00
0.00000000e+00
0.00000000e+00
1.13099811e+03
9.66104943e+02
0.00000000e+00
1.28181553e+03
1.66791730e+03
1.55015864e+03
9.18871562e+02
1.28136157e+03
1.12426320e+03
1.30581788e+03
0.00000000e+00
9.37699633e+02
8.46700757e+02
0.00000000e+00
1.20488508e+03
1.10658561e+03
0.00000000e+00
1.04122909e+03
0.00000000e+00
0.00000000e+00
0.00000000e+00
0.00000000e+00
1.30141579e+03
1.23625599e+03
1.44114518e+03
1.34234784e+03
9.47666198e+02
9.02784520e+02
1.41921812e+03
1.23165396e+03
1.33981441e+03
0.00000000e+00
0.00000000e+00
0.00000000e+00
0.00000000e+00
1.00238083e+03
1.27690061e+03
1.36265044e+03
1.28325869e+03
7.84081430e+02
0.00000000e+00
0.00000000e+00
7.58645526e+02
1.15960197e+03
1.03737972e+03
1.34093139e+03
1.41979292e+03
1.12706727e+03
7.19298190e+02
0.00000000e+00
1.43305360e+03
1.55037203e+03
0.00000000e+00
0.00000000e+00
0.00000000e+00
0.00000000e+00
1.03624285e+03
0.00000000e+00
1.36560119e+03
1.26748583e+03
1.05986532e+03
0.00000000e+00
6.39487579e+02
6.81902585e+02
1.05884194e+03
0.00000000e+00
1.21389937e+03
1.19446483e+03
0.00000000e+00
0.00000000e+00
1.45560148e+03
1.54116341e+03
0.00000000e+00
8.76126345e+02
0.00000000e+00
0.00000000e+00
0.00000000e+00
1.13979690e+03
1.28701182e+03
1.21999023e+03
0.00000000e+00
0.00000000e+00
0.00000000e+00
6.17123145e+02
0.00000000e+00
1.06112556e+03
0.00000000e+00
1.07350497e+03
1.13968967e+03
0.00000000e+00
0.00000000e+00
1.55131581e+03
1.43984738e+03
0.00000000e+00
1.04362939e+03
0.00000000e+00
7.41274487e+02
0.00000000e+00
1.26518543e+03
1.40977484e+03
0.00000000e+00
1.10832392e+03
0.00000000e+00
0.00000000e+00
0.00000000e+00
0.00000000e+00
8.94296246e+02
1.04244863e+03
0.00000000e+00
0.00000000e+00
0.00000000e+00
0.00000000e+00
0.00000000e+00
1.53041981e+03
1.07153867e+03
0.00000000e+00
8.55956688e+02
8.97106453e+02
7.63037022e+02
0.00000000e+00
1.22451011e+03
1.40458557e+03
1.21339710e+03
0.00000000e+00
8.41408681e+02
0.00000000e+00
0.00000000e+00
1.06670114e+03
1.13896410e+03
1.23460932e+03
1.37745479e+03
0.00000000e+00
0.00000000e+00
0.00000000e+00
1.34378500e+03
0.00000000e+00
0.00000000e+00
8.66564942e+02
0.00000000e+00
0.00000000e+00
1.03818652e+03
1.17494868e+03
0.00000000e+00
0.00000000e+00
8.56134618e+02
0.00000000e+00
0.00000000e+00
9.46692524e+02
0.00000000e+00
1.08593327e+03
1.23655281e+03
1.28727729e+03
1.28211970e+03
9.46300540e+02
1.27925020e+03
1.47891243e+03
1.29579700e+03
0.00000000e+00
0.00000000e+00
0.00000000e+00
8.75614452e+02
0.00000000e+00
1.33557400e+03
1.23173320e+03
0.00000000e+00
1.06469900e+03
0.00000000e+00
0.00000000e+00
9.33978263e+02
1.08931775e+03
0.00000000e+00
0.00000000e+00
1.34058323e+03
1.20423360e+03
0.00000000e+00
0.00000000e+00
1.11887255e+03
1.22136812e+03
9.97763805e+02
0.00000000e+00
0.00000000e+00
9.54667425e+02
1.08994000e+03
1.39073509e+03
1.46841487e+03
1.21709032e+03
9.11654467e+02
0.00000000e+00
0.00000000e+00
7.78292722e+02
1.01510404e+03
1.22691361e+03
1.24449171e+03
1.31684244e+03
1.15982228e+03
1.10456208e+03
0.00000000e+00
1.19271978e+03
1.15122771e+03
8.05920322e+02
0.00000000e+00
8.70335602e+02
0.00000000e+00
0.00000000e+00
1.14652092e+03
1.18371640e+03
1.44648410e+03
9.42877243e+02
0.00000000e+00
0.00000000e+00
0.00000000e+00
6.48941017e+02
9.97168559e+02
1.34392099e+03
1.31020042e+03
0.00000000e+00
1.24068977e+03
1.06544909e+03
9.84371730e+02
0.00000000e+00
0.00000000e+00
0.00000000e+00
0.00000000e+00
7.66697733e+02
0.00000000e+00
0.00000000e+00
1.29011603e+03
1.26607947e+03
1.11950473e+03
0.00000000e+00
0.00000000e+00
0.00000000e+00
0.00000000e+00
9.85478699e+02
1.24897034e+03
1.25944016e+03
1.23569831e+03
0.00000000e+00
1.06268569e+03
0.00000000e+00
0.00000000e+00
5.99538728e+02
0.00000000e+00
0.00000000e+00
0.00000000e+00
9.17222764e+02
0.00000000e+00
0.00000000e+00
1.22963910e+03
0.00000000e+00
0.00000000e+00
0.00000000e+00
0.00000000e+00
0.00000000e+00
0.00000000e+00
9.66585590e+02
1.06893189e+03
1.05683344e+03
1.20911425e+03
9.85301033e+02
0.00000000e+00
0.00000000e+00
0.00000000e+00
0.00000000e+00
0.00000000e+00
6.21608742e+02
5.92646938e+02
8.57749942e+02
9.73395165e+02
1.04542705e+03
8.89938303e+02
0.00000000e+00
8.39472578e+02
0.00000000e+00
8.89395548e+02
0.00000000e+00
9.06930210e+02
8.30476514e+02
0.00000000e+00
1.01327245e+03
7.98105178e+02
0.00000000e+00
0.00000000e+00
0.00000000e+00
0.00000000e+00
0.00000000e+00
6.46831244e+02
7.60246492e+02
0.00000000e+00
1.09719770e+03
0.00000000e+00
1.15663039e+03
1.14507248e+03
0.00000000e+00
9.43688718e+02
9.22918677e+02
7.93548783e+02
0.00000000e+00
0.00000000e+00
0.00000000e+00
0.00000000e+00
0.00000000e+00
8.90162271e+02
0.00000000e+00
0.00000000e+00
0.00000000e+00
0.00000000e+00
6.13667461e+02
0.00000000e+00
0.00000000e+00
0.00000000e+00
0.00000000e+00
1.05553667e+03
1.17519284e+03
1.11874169e+03
1.02346163e+03
9.90565238e+02
0.00000000e+00
0.00000000e+00
0.00000000e+00
0.00000000e+00
0.00000000e+00
0.00000000e+00
8.29296482e+02
1.50956356e+03
1.06817155e+03
0.00000000e+00
7.96172716e+02
1.78597961e+03
9.10214044e+02
0.00000000e+00
1.47981297e+03
1.98944093e+03
2.20363994e+03
1.56852614e+03
1.34368166e+03
9.65960489e+02
1.93212774e+03
1.51813583e+03
1.35332121e+03
1.29439882e+03
0.00000000e+00
1.47191864e+03
0.00000000e+00
1.89341503e+03
1.20103714e+03
2.23992957e+03
7.13551688e+02
1.60175178e+03
1.27913326e+03
1.78000540e+03
1.51288831e+03
1.90050716e+03
1.86871691e+03
2.12745646e+03
1.31288703e+03
1.97400270e+03
2.22691536e+03
1.91286577e+03
1.53375214e+03
1.70422315e+03
1.82623373e+03
1.53493941e+03
0.00000000e+00
1.14438647e+03
1.63145665e+03
1.52878018e+03
1.82285143e+03
1.21973523e+03
1.31595994e+03
2.24521670e+03
0.00000000e+00
1.23633616e+03
1.37991377e+03
1.38270864e+03
1.34243636e+03
1.32711235e+03
8.58641701e+02
1.31300254e+03
1.04168633e+03
1.57641020e+03
1.22418780e+03
1.52803957e+03
1.22481841e+03
1.63379464e+03
9.64219928e+02
1.22912205e+03
1.87772223e+03
1.57037268e+03
1.36749718e+03
1.37540572e+03
6.24393386e+02
1.48185564e+03
1.41118682e+03
1.25230723e+03
1.59430423e+03
1.83051139e+03
2.31188424e+03
1.52441934e+03
1.34760178e+03
1.00245404e+03
2.08788136e+03
2.14812029e+03
1.36108259e+03
2.20868333e+03
0.00000000e+00
0.00000000e+00
1.26421057e+03
2.21717791e+03
2.14269137e+03
1.72262453e+03
2.13389550e+03
2.25282147e+03
1.24951216e+03
1.27622867e+03
2.14521056e+03
2.12088862e+03
1.95264947e+03
1.54288353e+03
1.37623192e+03
1.05127708e+03
2.17606031e+03
1.21328328e+03
1.21385208e+03
1.73682879e+03
1.09856356e+03
0.00000000e+00
0.00000000e+00
1.47216832e+03
9.48995341e+02
1.00630799e+03
1.35444003e+03
1.06377218e+03
2.23036775e+03
1.52747429e+03
1.10031848e+03
1.23257285e+03
1.82862657e+03
1.18676572e+03
1.95532624e+03
1.86470221e+03
1.44238800e+03
0.00000000e+00
1.66941836e+03
1.11474849e+03
1.09871858e+03
1.85075551e+03
0.00000000e+00
9.94990906e+02
1.78602369e+03
1.50788127e+03
1.90274444e+03
1.93805882e+03
7.21509551e+02
2.23010934e+03
1.71601373e+03
1.11032525e+03
1.92660562e+03
1.27175886e+03
1.80062560e+03
1.51518715e+03
1.59781907e+03
1.55553369e+03
1.98212020e+03
1.43579263e+03
9.14918217e+02
1.01038240e+03
1.06382604e+03
7.04575765e+02
1.12167790e+03
1.23960733e+03
1.50416039e+03
1.50671335e+03
1.66472928e+03
1.99321063e+03
1.88512353e+03
2.19562024e+03
1.97836323e+03
2.10813835e+03
1.57514417e+03
1.39072628e+03
1.59856429e+03
1.57317768e+03
2.12560852e+03
2.19791558e+03
1.09750676e+03
8.34313310e+02
0.00000000e+00
8.55999759e+02
0.00000000e+00
1.12238188e+03
1.96937409e+03
1.41714216e+03
2.08992381e+03
1.55816053e+03
1.84954431e+03
1.49355006e+03
2.02088173e+03
1.34837603e+03
1.29012076e+03
1.64576940e+03
2.14603952e+03
1.52810953e+03
1.93314748e+03
1.13705726e+03
9.34114755e+02
1.51779321e+03
1.62877200e+03
0.00000000e+00
1.14518532e+03
0.00000000e+00
1.24245901e+03
2.16658745e+03
1.04143371e+03
1.41224320e+03
1.15328476e+03
9.91890326e+02
9.68252133e+02
7.75881176e+02
1.93902820e+03
1.33608866e+03
1.24271856e+03
1.46167504e+03
1.90033947e+03
1.35794096e+03
1.13878662e+03
1.35701375e+03
1.01083456e+03
1.09744442e+03
1.20144924e+03
9.26754735e+02
0.00000000e+00
1.38892368e+03
2.01556446e+03
1.13934285e+03
1.42412625e+03
1.05256181e+03
1.01992798e+03
1.24253960e+03
1.89472346e+03
1.92960439e+03
2.06129681e+03
1.24616306e+03
2.10452122e+03
1.35363870e+03
2.04552352e+03
1.16457307e+03
9.78913946e+02
1.89243998e+03
1.58376693e+03
1.25915401e+03
1.50368758e+03
9.46308841e+02
1.46247180e+03
1.44932412e+03
1.15764542e+03
8.83587271e+02
7.47415558e+02
8.29072354e+02
1.51971705e+03
9.02317759e+02
1.79182719e+03
1.85102105e+03
2.19530436e+03
1.49641004e+03
1.86738388e+03
1.24715375e+03
1.86088918e+03
1.16709942e+03
8.42594975e+02
9.04486136e+02
1.30970373e+03
1.06385701e+03
0.00000000e+00
1.32172392e+03
1.89623813e+03
1.52321510e+03
2.04349376e+03
2.04054924e+03
6.46653879e+02
1.05282472e+03
2.12161405e+03
1.53388603e+03
1.15480678e+03
1.58285741e+03
2.04354353e+03
9.74915215e+02
1.44796971e+03
1.36206316e+03
1.43908670e+03
1.35956739e+03
1.76427704e+03
1.15916779e+03
2.03050033e+03
0.00000000e+00
1.23960257e+03
1.12692292e+03
1.30372140e+03
1.82493124e+03
7.53178599e+02
6.91697886e+02
1.51703428e+03
1.50419052e+03
2.02104506e+03
7.11957787e+02
1.54024542e+03
1.17117063e+03
1.22338023e+03
1.13192570e+03
1.19519560e+03
1.41834473e+03
1.66395835e+03
1.79737005e+03
1.23861074e+03
7.60813475e+02
0.00000000e+00
0.00000000e+00
1.10153069e+03
1.22242990e+03
1.54933493e+03
2.01010460e+03
1.67551492e+03
1.95302135e+03
2.07134432e+03
2.08806154e+03
7.47403568e+02
2.23989579e+03
9.31452099e+02
1.13914835e+03
9.28948505e+02
1.57649610e+03
1.60628882e+03
1.91343538e+03
1.19580944e+03
1.25960005e+03
8.63966773e+02
1.10074609e+03
9.63422723e+02
1.22918816e+03
1.84911831e+03
8.41604460e+02
7.80259275e+02
5.92695638e+02
1.10997178e+03
7.37111345e+02
1.06661373e+03
1.07774282e+03
1.83003116e+03
1.96487350e+03
1.32794769e+03
1.12226614e+03
1.28495586e+03
0.00000000e+00
2.03331065e+03
1.10156673e+03
1.58415569e+03
9.73528614e+02
1.18058297e+03
0.00000000e+00
1.81354576e+03
1.86928690e+03
1.40204758e+03
1.94498069e+03
9.37983084e+02
1.15040670e+03
6.60850478e+02
1.87609036e+03
7.75356700e+02
1.24247761e+03
1.06564888e+03
1.47292989e+03
1.35456870e+03
1.39567208e+03
1.31111449e+03
1.64426868e+03
1.19482705e+03
1.94385655e+03
8.93376567e+02
9.45591928e+02
0.00000000e+00
1.30162998e+03
1.13674203e+03
1.96156092e+03
1.02286674e+03
1.95334613e+03
1.48958822e+03
1.17295493e+03
1.74028135e+03
8.38576453e+02
1.18278154e+03
1.05442626e+03
1.83069502e+03
1.87071943e+03
1.41799405e+03
1.15390441e+03
1.28729846e+03
1.56328078e+03
9.79368399e+02
8.83452470e+02
9.83283017e+02
1.12686187e+03
1.46008508e+03
1.16228956e+03
1.46327320e+03
1.87991130e+03
1.51804290e+03
1.11223026e+03
0.00000000e+00
0.00000000e+00
0.00000000e+00
1.18917480e+03
0.00000000e+00
1.22183313e+03
1.01518600e+03
1.03300241e+03
1.31247199e+03
1.19529752e+03
8.31225967e+02
1.07059776e+03
1.78747053e+03
0.00000000e+00
1.06954202e+03
1.22874283e+03
1.27535019e+03
1.55566402e+03
1.18557755e+03
1.56356909e+03
1.21843968e+03
8.34039058e+02
1.19149963e+03
8.73110118e+02
1.83225004e+03
1.14165887e+03
1.19840702e+03
9.67794183e+02
9.31643632e+02
1.01038531e+03
8.61297577e+02
1.20278624e+03
1.83446929e+03
1.79325657e+03
0.00000000e+00
1.01549590e+03
9.97036237e+02
9.29314074e+02
6.74235214e+02
0.00000000e+00
0.00000000e+00
0.00000000e+00
0.00000000e+00
0.00000000e+00
0.00000000e+00
1.06630282e+03
8.77993802e+02
0.00000000e+00
0.00000000e+00
0.00000000e+00
9.26267393e+02
9.48512517e+02
0.00000000e+00
6.66535678e+02
0.00000000e+00
9.26258546e+02
0.00000000e+00
0.00000000e+00
0.00000000e+00
0.00000000e+00
8.81877434e+02
7.86955301e+02
0.00000000e+00
0.00000000e+00
0.00000000e+00
8.15684227e+02
9.10849269e+02
1.54535140e+03
8.58900249e+02
1.13574930e+03
1.43910910e+03
1.77777424e+03
1.14198358e+03
1.18024920e+03
1.13510280e+03
1.15846083e+03
0.00000000e+00
7.21310401e+02
1.23679901e+03
1.50912862e+03
1.35593653e+03
1.31132616e+03
1.07036879e+03
1.14574696e+03
9.91675247e+02
2.34454574e+03
7.94682666e+02
1.54596810e+03
1.49809802e+03
1.10931811e+03
1.05394699e+03
9.34267246e+02
2.11431460e+03
1.77544242e+03
2.12970631e+03
1.41488674e+03
1.04750226e+03
1.04801073e+03
0.00000000e+00
1.38933288e+03
2.07834131e+03
2.20481823e+03
1.59475049e+03
1.65659282e+03
2.00713768e+03
1.36069197e+03
1.47988137e+03
2.23389207e+03
1.39990655e+03
1.63566247e+03
1.69569563e+03
1.50003067e+03
1.79468866e+03
1.91302167e+03
1.41230917e+03
1.36711458e+03
1.05700252e+03
1.70118035e+03
1.21473842e+03
0.00000000e+00
1.12477489e+03
1.22362075e+03
1.38111689e+03
1.22366702e+03
1.11356704e+03
1.79998204e+03
1.36038144e+03
1.72159570e+03
1.25486572e+03
1.32903503e+03
1.89012502e+03
1.89763653e+03
1.58100187e+03
2.19072081e+03
1.97060188e+03
1.88130051e+03
2.09971804e+03
1.63309655e+03
2.08212499e+03
1.25567239e+03
0.00000000e+00
1.62267952e+03
1.10417586e+03
1.46388809e+03
1.87455038e+03
1.58274750e+03
1.35655553e+03
1.86549847e+03
1.18951203e+03
1.59060355e+03
2.28264385e+03
1.14680395e+03
1.43303457e+03
2.37776359e+03
1.76926811e+03
1.46634627e+03
2.06931230e+03
1.42501058e+03
2.26431422e+03
2.04738611e+03
9.40134867e+02
8.35204321e+02
1.44604853e+03
1.08336160e+03
1.85843317e+03
2.03313537e+03
1.64634062e+03
1.83443643e+03
1.97845931e+03
1.37582403e+03
2.16406052e+03
1.48130413e+03
1.41138525e+03
1.18481169e+03
1.02578994e+03
2.38597952e+03
2.09429818e+03
1.91908474e+03
1.59747084e+03
2.16979022e+03
1.58007582e+03
0.00000000e+00
9.02153694e+02
1.78460559e+03
1.03930034e+03
1.90879970e+03
1.68357317e+03
1.06373699e+03
1.50556271e+03
1.88334796e+03
1.20831768e+03
2.27954004e+03
1.44728931e+03
9.86082045e+02
1.30582199e+03
1.09274089e+03
2.12798738e+03
1.27107588e+03
2.04361397e+03
2.02536855e+03
2.06753188e+03
1.19199113e+03
0.00000000e+00
0.00000000e+00
9.57646887e+02
1.65014496e+03
2.17312036e+03
2.15246473e+03
2.08675898e+03
7.06767589e+02
1.14848958e+03
1.30964689e+03
2.34935523e+03
2.26958297e+03
1.69999467e+03
2.10125248e+03
2.17011007e+03
1.90514240e+03
1.31159310e+03
1.91304698e+03
1.78461939e+03
2.19267425e+03
0.00000000e+00
0.00000000e+00
9.08007242e+02
1.13632872e+03
1.38759698e+03
1.54283167e+03
1.88616858e+03
1.87396104e+03
2.00402514e+03
1.96690103e+03
1.97275704e+03
1.96522977e+03
2.28551610e+03
1.95420520e+03
2.06133215e+03
1.36195741e+03
1.71674843e+03
1.09547003e+03
1.43746980e+03
1.99884235e+03
1.85511894e+03
0.00000000e+00
0.00000000e+00
6.29038802e+02
0.00000000e+00
2.25319882e+03
9.65702874e+02
1.87647771e+03
1.51914268e+03
2.16369462e+03
1.05870667e+03
1.40493109e+03
2.09512066e+03
1.24554493e+03
1.37547709e+03
2.13801993e+03
1.48620983e+03
1.89788238e+03
1.46256590e+03
1.47432427e+03
1.62511632e+03
1.43487566e+03
0.00000000e+00
1.13360912e+03
0.00000000e+00
1.22663209e+03
1.60535280e+03
9.62640343e+02
1.66151180e+03
1.17110984e+03
1.96942517e+03
1.48809957e+03
1.43164028e+03
1.89826883e+03
1.93522166e+03
1.59350509e+03
1.10155965e+03
1.57264360e+03
2.09619427e+03
1.60871801e+03
1.99310663e+03
1.23694092e+03
2.04503557e+03
8.92561020e+02
1.07245985e+03
0.00000000e+00
0.00000000e+00
1.66224025e+03
1.13262125e+03
2.18536244e+03
8.56267214e+02
1.80265977e+03
1.35631908e+03
1.71660395e+03
1.24449851e+03
1.71606109e+03
1.52927027e+03
1.88632498e+03
1.20135610e+03
1.60800141e+03
1.57541240e+03
2.02776684e+03
1.38296180e+03
1.43235154e+03
1.11497133e+03
0.00000000e+00
1.23917850e+03
1.39872490e+03
1.25061522e+03
1.23675121e+03
1.05464684e+03
9.98258143e+02
1.22978556e+03
1.81648950e+03
1.19034964e+03
1.82357665e+03
1.99612644e+03
2.03568329e+03
1.32784485e+03
2.16939085e+03
1.25166529e+03
1.48528542e+03
1.55924845e+03
1.57885272e+03
1.32486783e+03
1.01660503e+03
0.00000000e+00
9.93343989e+02
1.15519634e+03
1.70239999e+03
1.79651755e+03
1.25811344e+03
1.83514273e+03
1.84891608e+03
1.60612257e+03
1.89245521e+03
1.95323447e+03
1.42664964e+03
1.48722125e+03
1.91029785e+03
1.51233870e+03
1.10004323e+03
1.34439790e+03
1.58928718e+03
1.86673446e+03
1.20012781e+03
1.15920822e+03
1.01776529e+03
0.00000000e+00
1.91182197e+03
1.56659380e+03
1.89595335e+03
1.34575307e+03
1.80659129e+03
1.61389386e+03
6.68532737e+02
1.85784006e+03
1.91034511e+03
1.82035154e+03
1.75665544e+03
1.16845161e+03
1.19949649e+03
1.62467481e+03
1.57659916e+03
1.38526131e+03
2.00857253e+03
1.95691209e+03
9.52131609e+02
0.00000000e+00
0.00000000e+00
1.97198560e+03
1.39694341e+03
2.00941278e+03
1.24135442e+03
1.05557206e+03
2.03181927e+03
1.51353912e+03
1.38869769e+03
1.96939008e+03
1.33019994e+03
1.88533159e+03
1.53412539e+03
1.58010757e+03
1.85317582e+03
1.89983741e+03
1.64532010e+03
1.95113894e+03
1.59277095e+03
8.68122662e+02
1.00365978e+03
1.19539188e+03
1.21383957e+03
9.59184093e+02
1.16244713e+03
7.77129480e+02
1.05597696e+03
1.45716851e+03
1.57908798e+03
1.95117447e+03
1.34953587e+03
1.07271656e+03
1.65420970e+03
1.74724209e+03
1.18722924e+03
1.35813335e+03
1.01104657e+03
1.26778704e+03
1.88102410e+03
1.36734168e+03
1.72042051e+03
0.00000000e+00
1.22222045e+03
1.22775846e+03
1.97412417e+03
1.31728328e+03
7.92570500e+02
1.44454580e+03
1.43023148e+03
1.82114008e+03
1.21843360e+03
8.77241119e+02
1.08879013e+03
1.15080852e+03
1.23576484e+03
1.23817062e+03
1.84585548e+03
1.40374007e+03
1.75190088e+03
1.94163636e+03
1.95628780e+03
1.41837983e+03
0.00000000e+00
0.00000000e+00
1.56780197e+03
1.30425732e+03
1.87563521e+03
1.95346101e+03
9.35780646e+02
1.56386564e+03
1.77316998e+03
1.18542904e+03
1.43818372e+03
1.22666974e+03
1.30158437e+03
1.35637402e+03
1.57089418e+03
1.62425421e+03
1.63127473e+03
1.33801023e+03
1.33990548e+03
1.37174258e+03
1.89509234e+03
0.00000000e+00
1.10567062e+03
1.31344074e+03
1.30670268e+03
1.69428991e+03
1.35825801e+03
1.64163532e+03
1.83144982e+03
0.00000000e+00
0.00000000e+00
7.41744893e+02
7.14342448e+02
9.85215620e+02
0.00000000e+00
0.00000000e+00
1.48833590e+03
8.59701814e+02
1.67605936e+03
9.63720062e+02
1.80864028e+03
1.57249460e+03
9.28853250e+02
1.04807580e+03
1.04596243e+03
1.06737278e+03
0.00000000e+00
0.00000000e+00
0.00000000e+00
0.00000000e+00
0.00000000e+00
0.00000000e+00
0.00000000e+00
0.00000000e+00
1.18930604e+03
1.06370677e+03
0.00000000e+00
1.04839944e+03
9.60490895e+02
9.68349255e+02
0.00000000e+00
0.00000000e+00
0.00000000e+00
8.27863143e+02
0.00000000e+00
1.38618652e+03
0.00000000e+00
1.99832129e+03
1.23415254e+03
1.49128934e+03