# vtk DataFile Version 3.0
MPS 3D Simulation Step 3900
ASCII
DATASET UNSTRUCTURED_GRID
POINTS 20213 double
-9.67967893e-04 3.94005274e-04 -8.80709322e-04
-8.62526334e-04 2.94880382e-04 -9.47790547e-04
-7.90366273e-04 2.93402619e-04 -1.01833643e-03
-7.62899858e-04 3.58376047e-04 -1.06782786e-03
-6.63569053e-04 2.28078311e-04 -1.08700914e-03
-6.39712791e-04 4.37579051e-04 -1.17210814e-03
-4.67527147e-04 2.66212356e-04 -1.20044076e-03
-4.08706865e-04 3.14846951e-04 -1.24278719e-03
-2.96181539e-04 1.83663427e-04 -1.21564377e-03
-2.55684380e-04 6.96354937e-04 -1.10833399e-03
-1.44948085e-05 4.87594850e-04 -1.24101781e-03
-1.46365550e-04 5.35411644e-04 -1.24256117e-03
-7.33749636e-05 1.18446650e-04 -1.17830031e-03
1.29503366e-04 1.22464058e-04 -1.22133233e-03
2.07423386e-04 1.66012294e-04 -1.23705218e-03
4.88174486e-04 1.79868627e-04 -1.14097945e-03
4.40071454e-04 4.28816207e-04 -1.14268281e-03
5.64582810e-04 1.91955879e-04 -1.10940760e-03
5.72580055e-04 2.11514709e-04 -9.25859465e-04
7.56251268e-04 3.52968956e-04 -9.30799152e-04
8.95030804e-04 1.13634162e-04 -7.46910704e-04
-9.06073563e-04 3.75463999e-04 -9.37107221e-04
-8.38247926e-04 3.54248831e-04 -9.98972284e-04
-8.24855245e-04 4.24588949e-04 -1.03177215e-03
-6.97800681e-04 3.87693487e-04 -1.12360851e-03
-6.90589502e-04 5.96713186e-04 -1.16327671e-03
-7.07269486e-04 4.77583605e-04 -1.13732037e-03
-5.74176798e-04 4.69980494e-04 -1.21262558e-03
-4.08491131e-04 4.01184238e-04 -1.26432085e-03
-2.38600250e-04 2.22331880e-04 -1.25893444e-03
-1.62543090e-04 2.15848000e-04 -1.27372507e-03
5.21762817e-05 1.82678150e-04 -1.27025209e-03
1.26605707e-04 1.90055687e-04 -1.26684868e-03
3.25184609e-04 2.85488685e-04 -1.25771017e-03
2.99681937e-04 3.64509148e-04 -1.28861513e-03
3.51209035e-04 2.14204760e-04 -1.22087632e-03
4.48782149e-04 2.48664064e-04 -1.20231743e-03
5.25761685e-04 2.46321585e-04 -1.16297045e-03
5.39721589e-04 1.25469350e-04 -1.06261787e-03
5.82247279e-04 2.99672457e-04 -1.15152590e-03
6.82517453e-04 2.17160940e-04 -1.04763450e-03
8.36641972e-04 1.75375400e-04 -8.87953136e-04
-8.90364767e-04 4.42915987e-04 -9.73259886e-04
-8.57600582e-04 5.03399783e-04 -1.02061195e-03
-8.92892660e-04 6.64508203e-04 -1.01282786e-03
-7.20227957e-04 2.89585079e-04 -1.07334115e-03
-7.61205112e-04 4.36502909e-04 -1.09004751e-03
-6.53113886e-04 5.21069897e-04 -1.17971317e-03
-4.79790364e-04 3.53685262e-04 -1.22671565e-03
-6.13405531e-04 3.58444479e-04 -1.16584840e-03
-3.26368315e-04 4.05924880e-04 -1.29579608e-03
-1.76974257e-04 2.90038448e-04 -1.30003344e-03
-1.74184071e-05 4.69652642e-04 -1.34572027e-03
8.74440459e-05 2.59675909e-04 -1.29913181e-03
2.16821569e-04 3.75314523e-04 -1.31070721e-03
3.78304521e-04 3.67050542e-04 -1.26755812e-03
2.72877317e-04 2.17312673e-04 -1.24631844e-03
4.58349682e-04 3.71621886e-04 -1.24020253e-03
5.50562744e-04 3.75461673e-04 -1.19739756e-03
5.00093089e-04 3.15006939e-04 -1.20413717e-03
6.62940706e-04 3.07197356e-04 -1.10852548e-03
7.43521193e-04 2.07829572e-04 -9.97234571e-04
7.58869106e-04 1.55046540e-04 -9.33350823e-04
-1.01778817e-03 5.12878389e-04 -8.66739345e-04
-9.24647010e-04 5.25049816e-04 -9.62301700e-04
-8.77633830e-04 5.82249782e-04 -1.01662930e-03
-7.43423153e-04 5.51975466e-04 -1.11999525e-03
-5.96432828e-04 5.55834584e-04 -1.21538161e-03
-5.50450193e-04 3.91268386e-04 -1.20776498e-03
-4.89304881e-04 4.39741253e-04 -1.24332041e-03
-2.56905763e-04 3.06156910e-04 -1.28783361e-03
-1.66683806e-04 3.66581120e-04 -1.32468785e-03
-8.99534273e-05 2.51597062e-04 -1.29723137e-03
6.25659811e-05 5.05693743e-04 -1.34665662e-03
7.63472942e-06 1.31682161e-04 -1.23526619e-03
6.40871869e-05 3.34828659e-04 -1.32273114e-03
1.35602569e-04 3.85871762e-04 -1.32707181e-03
2.45214113e-04 4.50526352e-04 -1.31858200e-03
4.04418302e-04 2.95221181e-04 -1.23693365e-03
4.67354282e-04 5.12730877e-04 -1.26454988e-03
7.01204566e-04 3.78989806e-04 -1.11024750e-03
7.22194126e-04 2.87828888e-04 -1.05674624e-03
7.85798483e-04 2.81938341e-04 -1.00704586e-03
8.54386956e-04 2.88940625e-04 -9.53384213e-04
-1.05746538e-03 5.82944282e-04 -8.31966069e-04
-8.30376111e-04 6.76850636e-04 -1.06039717e-03
-7.95371255e-04 5.07467600e-04 -1.07554369e-03
-6.29327439e-04 6.32118030e-04 -1.20261654e-03
-4.52757838e-04 5.69245822e-04 -1.27693919e-03
-5.14796641e-04 5.19863225e-04 -1.24802224e-03
-2.43232497e-04 3.83061085e-04 -1.31288816e-03
-1.73128196e-04 4.48579873e-04 -1.33491566e-03
-8.83008467e-05 4.14005274e-04 -1.33840627e-03
-3.25750515e-05 5.53991170e-04 -1.34954611e-03
4.19876718e-05 5.86618221e-04 -1.35185823e-03
-8.10014982e-06 3.81438114e-04 -1.33744883e-03
1.36517173e-04 5.47153628e-04 -1.34690453e-03
2.84586446e-04 6.00509889e-04 -1.33106517e-03
1.54331625e-04 4.65284749e-04 -1.33356228e-03
3.31052247e-04 4.44345961e-04 -1.29662080e-03
4.17786786e-04 4.42189716e-04 -1.27068162e-03
6.24483303e-04 3.75799557e-04 -1.15594903e-03
7.64904894e-04 3.59054263e-04 -1.05959912e-03
8.30950471e-04 3.56083449e-04 -1.00708700e-03
8.00984845e-04 4.33085196e-04 -1.05669107e-03
-1.06314332e-03 6.73871987e-04 -8.33211671e-04
-9.40484532e-04 6.11619631e-04 -9.66444125e-04
-7.73329215e-04 7.20173850e-04 -1.10103760e-03
-8.13649453e-04 5.94293481e-04 -1.07015253e-03
-5.38213409e-04 6.02187012e-04 -1.24714101e-03
-3.71547821e-04 5.60070909e-04 -1.30085406e-03
-3.46218022e-04 4.81205924e-04 -1.30074665e-03
-2.57634879e-04 4.64094480e-04 -1.32030788e-03
-1.00825624e-04 5.00400380e-04 -1.34400313e-03
-1.29306077e-04 5.78520052e-04 -1.34694327e-03
-6.06641059e-05 6.30220844e-04 -1.35119227e-03
6.25397290e-05 4.24897083e-04 -1.33811906e-03
2.18486734e-04 5.27901836e-04 -1.33550292e-03
3.03183823e-04 5.22916625e-04 -1.31826398e-03
1.53523522e-04 3.11644137e-04 -1.30514493e-03
3.47614127e-04 6.74187902e-04 -1.31706430e-03
3.84922599e-04 5.17436413e-04 -1.29418987e-03
5.06065454e-04 4.40945870e-04 -1.23455085e-03
6.65910109e-04 4.54195796e-04 -1.15021614e-03
7.39270848e-04 4.56047400e-04 -1.10698346e-03
9.04282943e-04 5.18978069e-04 -9.88483592e-04
-1.01669718e-03 6.35559822e-04 -8.91530217e-04
-9.86572063e-04 5.66067522e-04 -9.13712524e-04
-8.41839979e-04 7.60679857e-04 -1.04535700e-03
-6.99073528e-04 6.82393977e-04 -1.15797641e-03
-5.68701180e-04 6.72836229e-04 -1.23473726e-03
-3.94651182e-04 6.42975600e-04 -1.30081553e-03
-2.83352701e-04 5.46704390e-04 -1.32364539e-03
-1.97435194e-04 5.27402496e-04 -1.33768191e-03
-2.16938176e-04 6.04867358e-04 -1.33741811e-03
-1.51082793e-04 6.60586677e-04 -1.34533489e-03
1.99946595e-05 6.63695164e-04 -1.35294806e-03
1.17507327e-04 6.26389120e-04 -1.35102641e-03
2.03892228e-04 6.09440455e-04 -1.34483042e-03
1.82612668e-04 6.89990320e-04 -1.34478523e-03
2.66510725e-04 6.82018984e-04 -1.33574103e-03
5.17790554e-04 5.90567033e-04 -1.25070718e-03
5.08768568e-04 6.69148416e-04 -1.26033667e-03
5.89692873e-04 4.50879604e-04 -1.19423052e-03
5.49334595e-04 5.18396878e-04 -1.22925939e-03
8.38268207e-04 5.08230337e-04 -1.04589483e-03
8.09615154e-04 6.07040928e-04 -1.07824147e-03
-1.06164690e-03 7.67525656e-04 -8.25291329e-04
-9.68397422e-04 6.78528438e-04 -9.43159276e-04
-9.09077923e-04 7.34734396e-04 -9.97314392e-04
-7.57718111e-04 6.38388444e-04 -1.11493323e-03
-4.73862556e-04 6.49499195e-04 -1.27526256e-03
-3.11806353e-04 6.24150389e-04 -1.32180088e-03
-3.36417371e-04 7.06253398e-04 -1.31561821e-03
-2.49483601e-04 6.78820224e-04 -1.33305280e-03
-1.86079335e-04 7.34125428e-04 -1.34012362e-03
-7.84195089e-05 7.10355991e-04 -1.35050748e-03
-2.95615314e-06 7.43393266e-04 -1.35248425e-03
9.27138824e-05 7.04328099e-04 -1.34928000e-03
1.53021643e-04 7.70845376e-04 -1.34142948e-03
2.35932909e-04 7.65478978e-04 -1.33361727e-03
3.19793585e-04 7.53413838e-04 -1.32012670e-03
4.43423049e-04 5.91949515e-04 -1.28293039e-03
4.31498197e-04 6.73420842e-04 -1.29143914e-03
5.79729807e-04 6.87138499e-04 -1.22415761e-03
6.25829238e-04 5.29435144e-04 -1.18698344e-03
7.77001415e-04 5.29202164e-04 -1.09496142e-03
8.40044863e-04 7.48991744e-04 -1.04650235e-03
-1.02062258e-03 7.24479696e-04 -8.84900164e-04
-9.64875101e-04 7.61979872e-04 -9.42182951e-04
-8.98848553e-04 8.14272711e-04 -9.93107811e-04
-5.78636439e-04 7.62235408e-04 -1.22117744e-03
-5.06066778e-04 7.22205507e-04 -1.26045809e-03
-4.17807963e-04 7.22998143e-04 -1.29200138e-03
-3.61646937e-04 7.93648678e-04 -1.30088343e-03
-2.75135219e-04 7.63030460e-04 -1.32410393e-03
-2.05332903e-04 8.14464374e-04 -1.33055152e-03
-1.15338415e-04 7.80583971e-04 -1.34383615e-03
-3.78323591e-05 8.15365574e-04 -1.34322348e-03
6.38056652e-05 7.86894002e-04 -1.34542782e-03
1.20450892e-04 8.48175727e-04 -1.33504144e-03
2.06961434e-04 8.49180717e-04 -1.32533128e-03
2.92934942e-04 8.32868656e-04 -1.31521774e-03
4.01194051e-04 7.48679716e-04 -1.29930908e-03
4.25683417e-04 9.04289493e-04 -1.25834514e-03
4.82143694e-04 7.48543061e-04 -1.26714661e-03
5.92267714e-04 6.05296674e-04 -1.21361912e-03
7.02111033e-04 5.32224536e-04 -1.14220091e-03
7.92254501e-04 6.86845444e-04 -1.08938736e-03
-1.00994798e-03 8.08244797e-04 -8.83998581e-04
-8.89736742e-04 8.97514442e-04 -9.79715479e-04
-7.79790973e-04 8.06603498e-04 -1.08144476e-03
-6.39684850e-04 7.18651350e-04 -1.19336368e-03
-5.79401948e-04 8.52758361e-04 -1.20034244e-03
-4.48358523e-04 7.91938708e-04 -1.27700113e-03
-4.29507731e-04 8.63077947e-04 -1.27212835e-03
-2.94334325e-04 8.43100947e-04 -1.31140175e-03
-2.24911865e-04 8.90984310e-04 -1.31678982e-03
-1.28904406e-04 8.57418645e-04 -1.33343353e-03
-5.73535920e-05 8.96364794e-04 -1.32949682e-03
2.83780508e-05 8.67062297e-04 -1.33421830e-03
9.37812277e-05 9.24348990e-04 -1.32058349e-03
1.77462259e-04 9.25382303e-04 -1.31154865e-03
2.65491946e-04 9.13364825e-04 -1.30327450e-03
3.76434484e-04 8.26847945e-04 -1.29265879e-03
5.00937458e-04 9.09581909e-04 -1.22553979e-03
4.56688767e-04 8.27396720e-04 -1.26616259e-03
6.50460723e-04 6.85285099e-04 -1.18317001e-03
7.40286029e-04 6.06989589e-04 -1.12441259e-03
8.18362659e-04 8.29266299e-04 -1.04904087e-03
-9.53238377e-04 8.45098451e-04 -9.35668973e-04
-8.69624386e-04 9.85883010e-04 -9.66489581e-04
[...]
POINT_DATA 20213
SCALARS pressure double 1
LOOKUP_TABLE default
0.00000000e+00
0.00000000e+00
0.00000000e+00
0.00000000e+00
0.00000000e+00
1.06656746e+03
1.31574380e+03
1.23532357e+03
1.09282417e+03
1.13857760e+03
6.73498499e+02
7.16233633e+02
7.13865205e+02
5.94501061e+02
0.00000000e+00
1.02489469e+03
1.10711088e+03
1.19364414e+03
1.18700282e+03
1.26690372e+03
3.86394885e+02
5.63726306e+02
0.00000000e+00
0.00000000e+00
0.00000000e+00
0.00000000e+00
0.00000000e+00
1.25075459e+03
1.08282530e+03
9.42307448e+02
0.00000000e+00
6.51523117e+02
0.00000000e+00
0.00000000e+00
0.00000000e+00
7.65770676e+02
9.30437118e+02
1.10698032e+03
9.65538435e+02
1.10857189e+03
0.00000000e+00
0.00000000e+00
0.00000000e+00
0.00000000e+00
5.25179415e+02
0.00000000e+00
0.00000000e+00
9.44316340e+02
1.25434646e+03
1.14617011e+03
0.00000000e+00
7.76852436e+02
0.00000000e+00
0.00000000e+00
0.00000000e+00
7.43190962e+02
6.12318991e+02
8.50686082e+02
1.03511779e+03
0.00000000e+00
1.25124217e+03
1.15874762e+03
0.00000000e+00
0.00000000e+00
0.00000000e+00
0.00000000e+00
0.00000000e+00
1.09248169e+03
1.25038561e+03
1.27805602e+03
8.95129058e+02
0.00000000e+00
0.00000000e+00
0.00000000e+00
6.83444067e+02
5.58990721e+02
0.00000000e+00
0.00000000e+00
0.00000000e+00
0.00000000e+00
0.00000000e+00
1.41274681e+03
1.26738473e+03
0.00000000e+00
0.00000000e+00
0.00000000e+00
0.00000000e+00
0.00000000e+00
0.00000000e+00
0.00000000e+00
7.93509246e+02
0.00000000e+00
0.00000000e+00
0.00000000e+00
0.00000000e+00
0.00000000e+00
0.00000000e+00
0.00000000e+00
0.00000000e+00
0.00000000e+00
0.00000000e+00
0.00000000e+00
1.33614951e+03
1.24478086e+03
1.37631992e+03
6.54250710e+02
0.00000000e+00
0.00000000e+00
0.00000000e+00
1.04381882e+03
0.00000000e+00
7.47733612e+02
0.00000000e+00
4.83108707e+02
0.00000000e+00
0.00000000e+00
0.00000000e+00
0.00000000e+00
0.00000000e+00
5.70794860e+02
6.62182413e+02
0.00000000e+00
9.71743338e+02
1.15908989e+03
1.32275568e+03
1.13953960e+03
0.00000000e+00
0.00000000e+00
0.00000000e+00
0.00000000e+00
7.64100689e+02
5.68001770e+02
0.00000000e+00
5.69096738e+02
0.00000000e+00
0.00000000e+00
0.00000000e+00
0.00000000e+00
0.00000000e+00
0.00000000e+00
7.27860289e+02
1.01154110e+03
0.00000000e+00
1.06920260e+03
0.00000000e+00
1.43775510e+03
1.48576463e+03
8.28592087e+02
7.12925769e+02
0.00000000e+00
0.00000000e+00
8.33326063e+02
0.00000000e+00
0.00000000e+00
0.00000000e+00
0.00000000e+00
0.00000000e+00
0.00000000e+00
6.84374805e+02
9.63926003e+02
8.90666346e+02
0.00000000e+00
0.00000000e+00
7.56267818e+02
0.00000000e+00
0.00000000e+00
1.46877180e+03
0.00000000e+00
8.28535954e+02
7.60795850e+02
5.37074802e+02
0.00000000e+00
0.00000000e+00
0.00000000e+00
6.64675630e+02
0.00000000e+00
0.00000000e+00
0.00000000e+00
5.72549577e+02
7.32204976e+02
1.02958209e+03
1.09517225e+03
0.00000000e+00
0.00000000e+00
0.00000000e+00
8.60118163e+02
1.21026861e+03
1.35675682e+03
0.00000000e+00
8.15392814e+02
0.00000000e+00
0.00000000e+00
0.00000000e+00
0.00000000e+00
5.70611141e+02
0.00000000e+00
7.30774120e+02
6.39015057e+02
0.00000000e+00
0.00000000e+00
8.96567442e+02
0.00000000e+00
1.07453811e+03
9.52079574e+02
0.00000000e+00
0.00000000e+00
0.00000000e+00
1.22768020e+03
1.43793238e+03
9.17158160e+02
0.00000000e+00
5.54768419e+02
0.00000000e+00
0.00000000e+00
0.00000000e+00
0.00000000e+00
0.00000000e+00
0.00000000e+00
0.00000000e+00
0.00000000e+00
1.18837725e+03
0.00000000e+00
8.97748608e+02
1.15670632e+03
1.08281860e+03
0.00000000e+00
0.00000000e+00
0.00000000e+00
7.98995531e+02
0.00000000e+00
0.00000000e+00
0.00000000e+00
0.00000000e+00
0.00000000e+00
0.00000000e+00
0.00000000e+00
5.91125088e+02
0.00000000e+00
0.00000000e+00
0.00000000e+00
0.00000000e+00
8.47384018e+02
1.06626863e+03
9.84722920e+02
1.07539033e+03
0.00000000e+00
0.00000000e+00
0.00000000e+00
0.00000000e+00
0.00000000e+00
0.00000000e+00
6.73046522e+02
0.00000000e+00
0.00000000e+00
0.00000000e+00
0.00000000e+00
6.12758432e+02
0.00000000e+00
7.44644602e+02
0.00000000e+00
0.00000000e+00
1.06269232e+03
0.00000000e+00
1.09528950e+03
0.00000000e+00
9.54261723e+02
0.00000000e+00
0.00000000e+00
0.00000000e+00
0.00000000e+00
4.98597143e+02
0.00000000e+00
0.00000000e+00
0.00000000e+00
6.49661523e+02
8.25356048e+02
7.15953099e+02
8.60458470e+02
9.41967034e+02
8.13283926e+02
8.50225011e+02
0.00000000e+00
1.01413719e+03
1.08347494e+03
9.40643677e+02
0.00000000e+00
9.36165143e+02
1.00741278e+03
7.76352581e+02
9.79897811e+02
0.00000000e+00
0.00000000e+00
0.00000000e+00
0.00000000e+00
0.00000000e+00
0.00000000e+00
0.00000000e+00
8.34555236e+02
0.00000000e+00
0.00000000e+00
8.51975632e+02
7.95930566e+02
0.00000000e+00
1.06173407e+03
1.00303254e+03
0.00000000e+00
8.54037938e+02
0.00000000e+00
1.17006994e+03
1.01335371e+03
0.00000000e+00
1.17014951e+03
7.68819821e+02
0.00000000e+00
0.00000000e+00
0.00000000e+00
0.00000000e+00
8.17078045e+02
8.02879873e+02
8.51887959e+02
0.00000000e+00
0.00000000e+00
0.00000000e+00
9.80554422e+02
1.09750499e+03
1.05742757e+03
0.00000000e+00
0.00000000e+00
0.00000000e+00
1.05356080e+03
1.03831243e+03
1.18634788e+03
1.02874259e+03
7.75602805e+02
0.00000000e+00
0.00000000e+00
0.00000000e+00
0.00000000e+00
6.57170057e+02
8.56241651e+02
7.86967573e+02
0.00000000e+00
0.00000000e+00
7.79406910e+02
9.62766842e+02
1.08427463e+03
1.07443848e+03
9.70074265e+02
7.81736024e+02
0.00000000e+00
9.87472120e+02
0.00000000e+00
1.33120335e+03
1.44158918e+03
1.23354766e+03
0.00000000e+00
0.00000000e+00
0.00000000e+00
0.00000000e+00
6.98867246e+02
0.00000000e+00
7.21702313e+02
0.00000000e+00
7.90771886e+02
0.00000000e+00
0.00000000e+00
0.00000000e+00
9.43703079e+02
0.00000000e+00
0.00000000e+00
0.00000000e+00
1.24650332e+03
1.51972573e+03
1.39566684e+03
1.43442094e+03
1.28686983e+03
8.98250629e+02
0.00000000e+00
0.00000000e+00
0.00000000e+00
0.00000000e+00
0.00000000e+00
0.00000000e+00
1.04509550e+03
8.48074929e+02
9.68990697e+02
9.01366425e+02
0.00000000e+00
0.00000000e+00
0.00000000e+00
9.84350908e+02
0.00000000e+00
1.37844100e+03
1.30038794e+03
1.52147288e+03
1.43344123e+03
0.00000000e+00
0.00000000e+00
0.00000000e+00
1.08491276e+03
1.05181906e+03
0.00000000e+00
9.39581661e+02
0.00000000e+00
0.00000000e+00
1.08983244e+03
1.04363616e+03
9.25980876e+02
0.00000000e+00
0.00000000e+00
7.47153889e+02
9.29657217e+02
0.00000000e+00
1.19009467e+03
1.47940032e+03
0.00000000e+00
1.45331212e+03
1.32236167e+03
1.03074197e+03
0.00000000e+00
1.17395671e+03
1.14276650e+03
1.05554425e+03
0.00000000e+00
1.03297208e+03
1.18710624e+03
1.02334313e+03
0.00000000e+00
0.00000000e+00
0.00000000e+00
0.00000000e+00
0.00000000e+00
8.92125537e+02
9.71749312e+02
0.00000000e+00
1.31798855e+03
1.48712774e+03
1.44236150e+03
1.36714366e+03
0.00000000e+00
8.24341149e+02
0.00000000e+00
4.95067039e+02
0.00000000e+00
0.00000000e+00
0.00000000e+00
1.04447300e+03
1.06922481e+03
0.00000000e+00
1.13044068e+03
1.08186844e+03
1.41171772e+03
1.20909228e+03
0.00000000e+00
9.54854039e+02
1.06857222e+03
1.44737110e+03
1.19280695e+03
1.26915709e+03
8.41893487e+02
0.00000000e+00
0.00000000e+00
4.71346121e+02
1.91015920e+03
7.35180049e+02
1.36873563e+03
7.42156633e+02
1.05155668e+03
1.07862239e+03
1.18593339e+03
7.87269322e+02
1.44534093e+03
2.02838696e+03
1.89163306e+03
7.80305443e+02
1.96679198e+03
1.81885343e+03
1.20260443e+03
1.30864181e+03
7.72045391e+02
1.38268489e+03
1.03084749e+03
1.22704583e+03
0.00000000e+00
9.92010919e+02
1.01892981e+03
1.15543914e+03
9.90778691e+02
2.03204641e+03
1.18326786e+03
0.00000000e+00
0.00000000e+00
8.73600000e+02
0.00000000e+00
0.00000000e+00
0.00000000e+00
0.00000000e+00
2.05098086e+03
1.01812874e+03
1.64602839e+03
6.56251014e+02
1.24186790e+03
8.97218040e+02
8.63721461e+02
0.00000000e+00
7.66936741e+02
1.80429924e+03
1.85037006e+03
1.39288772e+03
2.20596046e+03
9.27114956e+02
1.30077777e+03
8.85435574e+02
2.04331938e+03
1.23789213e+03
1.39067707e+03
1.32360480e+03
1.32779311e+03
1.15141429e+03
1.02555338e+03
1.56319781e+03
1.95558283e+03
1.29371047e+03
1.51780774e+03
0.00000000e+00
0.00000000e+00
9.67060503e+02
1.20564799e+03
9.62884359e+02
1.84973831e+03
1.45297793e+03
1.52296832e+03
1.14275934e+03
1.04116559e+03
1.50397971e+03
1.58872521e+03
2.20004406e+03
9.10205422e+02
2.05039632e+03
1.43188588e+03
1.85822272e+03
1.58635938e+03
1.32355749e+03
1.50668195e+03
5.78528436e+02
0.00000000e+00
0.00000000e+00
1.98070648e+03
7.09855350e+02
9.01103209e+02
2.04533651e+03
9.26297448e+02
1.73275587e+03
1.34714564e+03
1.03456785e+03
1.18728334e+03
1.82573887e+03
1.11570561e+03
1.48366719e+03
1.25051298e+03
1.03071703e+03
0.00000000e+00
1.60101176e+03
1.20223221e+03
7.54223572e+02
1.44141037e+03
1.24479228e+03
0.00000000e+00
1.19895040e+03
1.05522738e+03
1.07675298e+03
1.26252777e+03
8.78692564e+02
1.18413918e+03
1.20076788e+03
9.28563625e+02
2.08463360e+03
1.19084040e+03
1.53119737e+03
2.06457019e+03
1.30507099e+03
1.14963732e+03
1.48923128e+03
1.32817951e+03
9.18218677e+02
8.87607486e+02
7.57488852e+02
1.35445641e+03
0.00000000e+00
6.97129863e+02
0.00000000e+00
1.14169860e+03
1.17262500e+03
1.43653689e+03
9.96652304e+02
1.73606828e+03
1.78307323e+03
1.32447900e+03
1.31569523e+03
1.27481518e+03
2.09981564e+03
1.29333512e+03
1.43651756e+03
1.93472170e+03
9.69887731e+02
9.68318858e+02
1.36336064e+03
7.16850337e+02
1.34963782e+03
0.00000000e+00
1.49802055e+03
0.00000000e+00
1.34447516e+03
2.07329861e+03
1.16488731e+03
1.20596836e+03
1.37467690e+03
1.65381886e+03
1.84356441e+03
1.50053913e+03
2.06572610e+03
2.17257207e+03
1.34524584e+03
1.20385344e+03
1.10904181e+03
2.07883497e+03
1.89699736e+03
0.00000000e+00
1.07500670e+03
1.23605380e+03
0.00000000e+00
1.40498846e+03
0.00000000e+00
1.00156872e+03
1.00340039e+03
9.54591638e+02
1.01857263e+03
1.07538371e+03
1.37551292e+03
1.11825087e+03
1.24234659e+03
1.20171989e+03
1.97313264e+03
1.05177848e+03
1.09019768e+03
1.13534084e+03
1.17384573e+03
1.29771523e+03
1.01240974e+03
4.99374052e+02
1.04679768e+03
6.79394251e+02
1.28825975e+03
0.00000000e+00
1.15072047e+03
1.01937686e+03
9.77518335e+02
9.59412771e+02
1.22883646e+03
1.14030261e+03
1.47195104e+03
1.30663993e+03
1.85100276e+03
1.85045052e+03
1.82054223e+03
1.31355584e+03
1.33321630e+03
1.57388877e+03
2.20651339e+03
1.04268388e+03
1.16690417e+03
1.14234876e+03
0.00000000e+00
1.07249425e+03
0.00000000e+00
9.04514495e+02
9.44255478e+02
9.99871972e+02
9.36609203e+02
1.15643251e+03
2.07080975e+03
1.30474714e+03
1.99145511e+03
1.50246051e+03
1.53159323e+03
1.08053750e+03
1.44089096e+03
1.45480697e+03
1.38359111e+03
1.19221680e+03
0.00000000e+00
4.72103249e+02
0.00000000e+00
0.00000000e+00
1.39516834e+03
0.00000000e+00
1.12746728e+03
1.45058385e+03
9.96686454e+02
1.29945908e+03
1.36563341e+03
2.15775283e+03
1.27213680e+03
1.26246586e+03
2.05739101e+03
2.11283801e+03
1.99321764e+03
1.45354831e+03
1.51942538e+03
1.51284652e+03
1.99016046e+03
8.41702041e+02
1.55700199e+03
0.00000000e+00
0.00000000e+00
8.23809446e+02
5.22342053e+02
1.19293426e+03
9.78994689e+02
1.01902572e+03
1.24371290e+03
1.25339087e+03
1.51115602e+03
1.08647815e+03
1.19543654e+03
1.11583158e+03
1.26398614e+03
1.17860723e+03
1.24363934e+03
1.47965765e+03
1.48639123e+03
1.48472819e+03
0.00000000e+00
7.33755092e+02
0.00000000e+00
0.00000000e+00
1.08809547e+03
1.29590934e+03
9.68516242e+02
1.23110138e+03
1.01658936e+03
1.50781271e+03
1.98993029e+03
1.21101921e+03
1.03872055e+03
1.78436332e+03
1.08307479e+03
1.07607106e+03
1.11636730e+03
1.26456669e+03
1.55185871e+03
1.87588377e+03
1.51335435e+03
1.33011701e+03
9.60247415e+02
0.00000000e+00
0.00000000e+00
1.44574307e+03
1.29888082e+03
1.13849212e+03
1.11817096e+03
0.00000000e+00
1.33181193e+03
1.15782160e+03
1.01822307e+03
1.03083866e+03
1.07880444e+03
1.46904761e+03
1.32834528e+03
1.15023647e+03
1.24515906e+03
1.15696313e+03
1.60690685e+03
1.45453869e+03
1.55948350e+03
1.24037719e+03
0.00000000e+00
0.00000000e+00
1.48397303e+03
1.50586714e+03
1.12967728e+03
1.87563524e+03
1.23425507e+03
1.19274754e+03
1.12310678e+03
1.38815477e+03
9.56068189e+02
1.17435330e+03
1.08283700e+03
1.53273584e+03
1.37786583e+03
1.89380050e+03
1.33007677e+03
2.06980285e+03
1.50852840e+03
1.82474373e+03
1.29231922e+03
0.00000000e+00
0.00000000e+00
1.39310082e+03
1.24804004e+03
1.40892602e+03
1.22933110e+03
1.50179095e+03
1.32188090e+03
9.99305077e+02
1.43002365e+03
8.95788283e+02
1.18843911e+03
1.01058475e+03
1.90412074e+03
1.70722826e+03
1.45463188e+03
1.48372958e+03
1.51495961e+03
1.62461653e+03
1.51765576e+03
1.41326604e+03
0.00000000e+00
0.00000000e+00
1.41969398e+03
1.33250247e+03
1.27037860e+03
1.52719901e+03
1.39000463e+03
1.25139066e+03
9.22797865e+02
8.77875630e+02
1.01627595e+03
7.96414664e+02
9.17539311e+02
9.04551322e+02
1.07470353e+03
1.39111284e+03
1.41059278e+03
1.48354843e+03
1.22405645e+03
1.17749051e+03
1.49747162e+03
0.00000000e+00
1.12684103e+03
1.65206074e+03
1.32362419e+03
1.47268309e+03
1.26815047e+03
1.34920753e+03
1.15394405e+03
1.04984861e+03
1.19392384e+03
9.12681029e+02
1.41864566e+03
1.21677789e+03
1.79787061e+03
1.05183550e+03
1.12362043e+03
1.20813949e+03
1.07851077e+03
1.38460588e+03
1.24531554e+03
1.90054202e+03
5.94798166e+02
1.42210746e+03
0.00000000e+00
1.14316703e+03
0.00000000e+00
0.00000000e+00
1.08789355e+03
1.08919497e+03
0.00000000e+00
9.42286958e+02
8.35371051e+02
0.00000000e+00
0.00000000e+00
9.00187923e+02
0.00000000e+00
1.06457343e+03
1.52590667e+03
1.34574343e+03
1.53184927e+03
1.40087915e+03
1.05956889e+03
7.02873086e+02
0.00000000e+00
0.00000000e+00
0.00000000e+00
0.00000000e+00
6.39275363e+02
0.00000000e+00
9.16406835e+02
1.15059264e+03
1.25950886e+03
5.37055858e+02
7.77743068e+02
1.03484404e+03
9.55459842e+02
0.00000000e+00
1.16607565e+03
1.03289929e+03
1.07278424e+03
9.41174581e+02
0.00000000e+00
0.00000000e+00
0.00000000e+00
0.00000000e+00
1.18139567e+03
1.09814507e+03
8.50256536e+02
1.48871566e+03
7.51354088e+02
7.15304445e+02
7.93430740e+02
1.79807080e+03
1.17909790e+03
8.49042426e+02
1.23835115e+03
8.05280085e+02
0.00000000e+00
8.74072931e+02
1.12504946e+03
1.88959679e+03
1.47412391e+03
1.00329743e+03
5.18752421e+02
0.00000000e+00
0.00000000e+00
1.22121712e+03
1.62046146e+03
1.44932110e+03
2.16142442e+03
1.46517934e+03
1.84761273e+03
1.13128560e+03
1.97470409e+03
1.16796437e+03
1.54082385e+03
2.04387922e+03
2.07657815e+03
1.57070435e+03
1.54407536e+03
1.85307542e+03
2.07503587e+03
1.51697386e+03
1.99128765e+03
8.53115701e+02
9.45062799e+02
0.00000000e+00
7.23593132e+02
1.52762159e+03
1.28548400e+03
1.61056661e+03
9.49556241e+02
1.71908419e+03
1.14441158e+03
2.02766476e+03
9.98196489e+02
8.79645325e+02
1.49957047e+03
1.28774781e+03
1.93459028e+03
1.80672973e+03
1.40466328e+03
2.01236946e+03
1.62953151e+03
1.95853748e+03
2.27194121e+03
0.00000000e+00
9.78036813e+02
1.26193561e+03
1.73637156e+03
1.08529652e+03
1.98508185e+03
1.99118215e+03
1.05988391e+03
1.41450758e+03
9.12386124e+02
1.84875532e+03
1.14105771e+03
1.66739967e+03
1.52687472e+03
1.18029750e+03
2.03173009e+03
1.29125483e+03
1.73290714e+03
1.94769259e+03
1.98600158e+03
2.14720280e+03
0.00000000e+00
5.28269811e+02
1.17513461e+03
2.18805555e+03
1.21451842e+03
1.66959451e+03
1.90927379e+03
1.33580944e+03
1.42511970e+03
1.45638934e+03
1.21794402e+03
1.19524118e+03
1.86982586e+03
2.02957575e+03
1.12568323e+03
1.52973694e+03
2.08263951e+03
1.89906810e+03
2.09034457e+03
2.16046401e+03
1.79292634e+03
0.00000000e+00
0.00000000e+00
1.33093194e+03
2.31162575e+03
1.06812583e+03
1.94995629e+03
1.19683710e+03
9.13835781e+02
1.38575532e+03
2.03915003e+03
1.87881198e+03
1.64805942e+03
9.41843079e+02
2.05393022e+03
1.23897629e+03
1.54951139e+03
2.15340847e+03
1.89485721e+03
1.78227655e+03
2.15673332e+03
1.04026254e+03
0.00000000e+00
0.00000000e+00
0.00000000e+00
1.71562564e+03
1.67845383e+03
1.49855636e+03
1.35803611e+03
1.04068160e+03
1.88136950e+03
9.42950332e+02
1.43674827e+03
1.79924708e+03
1.41060590e+03
1.44817631e+03
1.85269530e+03
1.86706310e+03
1.43000272e+03
1.86774361e+03
2.14026392e+03
2.02877783e+03
1.39669101e+03
1.12501791e+03
0.00000000e+00
0.00000000e+00
1.79594523e+03
1.01821485e+03
1.47253943e+03
9.64428879e+02
2.01071475e+03
1.09568899e+03
1.96617574e+03
1.72114308e+03
1.47194484e+03
1.85959949e+03
2.04692869e+03
2.12129335e+03
2.13412761e+03
1.26232421e+03
2.24687005e+03
1.56367585e+03
2.18644086e+03
1.42023096e+03
0.00000000e+00
0.00000000e+00
0.00000000e+00
1.56315058e+03
8.15336395e+02
1.88255997e+03
1.94769876e+03
1.62898290e+03
1.53910442e+03
7.39316578e+02
1.49002444e+03
1.02541997e+03
2.12600841e+03
1.72294112e+03
1.90334598e+03
1.51570873e+03
2.07615275e+03
1.02014134e+03
1.28278630e+03
2.16986809e+03
1.26535498e+03
9.99061626e+02
0.00000000e+00
0.00000000e+00
1.45729120e+03
7.64285169e+02
1.66873828e+03
1.50165961e+03
1.23825705e+03
1.18949585e+03
2.20296130e+03
2.14779791e+03
1.47057113e+03
2.14013249e+03
1.03105423e+03
2.04178475e+03
1.71359973e+03
1.57144048e+03
1.99850356e+03
5.91727344e+02
2.01225119e+03
8.79503643e+02
0.00000000e+00
0.00000000e+00
0.00000000e+00
2.18614285e+03
1.06858373e+03
1.25951539e+03
1.67572457e+03
1.20233291e+03
9.70940028e+02
2.06898471e+03
2.05722063e+03
1.69750747e+03
1.52618784e+03
9.14633221e+02
2.25180136e+03
1.43348727e+03
1.52665700e+03
1.11157944e+03
1.28748278e+03
2.03936249e+03
0.00000000e+00
0.00000000e+00
0.00000000e+00
7.49310048e+02
2.33136622e+03
8.77166576e+02
2.18717881e+03
1.99004199e+03
2.09532508e+03
1.72144132e+03
2.27190315e+03
1.77029340e+03
1.68381793e+03
1.94098767e+03
1.15338954e+03
1.79030366e+03
2.03445755e+03
2.16255930e+03
2.22666544e+03
1.35483359e+03
2.28765013e+03
0.00000000e+00
0.00000000e+00
9.51448003e+02
6.74508889e+02
2.03397338e+03
1.31720536e+03
2.16742583e+03
1.38685226e+03
1.38027585e+03
2.05812340e+03
1.50761191e+03
1.48907891e+03
8.62815920e+02
2.10385209e+03
2.30059425e+03
1.68289704e+03
1.40828727e+03
1.46704753e+03
2.02985959e+03
1.42851565e+03
1.14417910e+03
0.00000000e+00
0.00000000e+00
1.01039440e+03
1.44073280e+03
1.48131028e+03
1.43015179e+03
1.72113452e+03
1.54031448e+03
1.44610766e+03
1.17170971e+03
1.87160673e+03
1.35138874e+03
1.51023352e+03
1.52717407e+03
2.26048070e+03
1.29005799e+03
1.87107464e+03
2.17168671e+03
1.53315936e+03
1.51009466e+03
1.86687698e+03
9.47465829e+02
0.00000000e+00
0.00000000e+00
1.55386226e+03
1.88889176e+03
1.63718293e+03
2.28450215e+03
2.04574050e+03
1.79208730e+03
1.24399330e+03
2.19599003e+03
1.79226784e+03
9.70978999e+02
2.34510901e+03
2.17372012e+03
1.52437470e+03
1.62508686e+03
2.25335909e+03
2.23336484e+03
1.78172538e+03
1.33958634e+03
1.14174306e+03
0.00000000e+00
1.13713454e+03
1.52738550e+03
1.98917155e+03
1.82080246e+03
2.25409814e+03
2.43573119e+03
1.87205209e+03
1.21882599e+03
1.67706721e+03
1.99646776e+03
2.30816846e+03
1.49210986e+03
2.35200475e+03
1.29788471e+03
2.37642393e+03
2.19080998e+03
2.35686797e+03
1.88459945e+03
2.43492439e+03
1.19037172e+03
0.00000000e+00
1.15951229e+03
1.47559917e+03
1.36087627e+03
1.39520706e+03
2.19736965e+03
1.80914705e+03
1.78010370e+03
1.74045508e+03
1.17419377e+03
9.55677995e+02
9.48395287e+02
1.16350179e+03
1.31773277e+03
1.33213823e+03
1.54928811e+03
1.91222872e+03
2.09451201e+03
1.80221467e+03
1.44835490e+03
1.28043782e+03
0.00000000e+00
1.36839074e+03
1.51570225e+03
1.84210115e+03
1.77569678e+03
1.48877376e+03
2.25749957e+03
1.26190773e+03
1.82203384e+03
2.37018364e+03
2.24151209e+03
2.31893065e+03
2.09799390e+03
2.40149841e+03
1.26564958e+03
1.53405099e+03
1.83451158e+03
2.11907697e+03
2.16156988e+03
2.45273647e+03
1.05107561e+03
0.00000000e+00
1.37643180e+03
1.35465445e+03
1.32564693e+03
1.34268335e+03
1.67551656e+03
1.44418029e+03
1.35555085e+03
8.99387574e+02
7.32447246e+02
8.37277376e+02
0.00000000e+00
8.51142571e+02
9.68589162e+02
0.00000000e+00
1.28417007e+03
9.62346997e+02
1.47491632e+03
1.00390776e+03
1.83793602e+03
9.47796518e+02
5.97190160e+02
1.53711001e+03
1.42839938e+03
1.31130752e+03
1.21853030e+03
1.19674804e+03
1.11641481e+03
0.00000000e+00
0.00000000e+00
1.02114507e+03
8.62304314e+02
0.00000000e+00
8.92189765e+02
9.05146981e+02
9.64930576e+02
0.00000000e+00
1.20065415e+03
1.16494274e+03
1.41974728e+03
1.22084527e+03
0.00000000e+00
7.84902007e+02
6.63633995e+02
8.88195618e+02
0.00000000e+00
1.54016789e+03
5.68488800e+02
9.10605972e+02