# vtk DataFile Version 3.0
MPS 3D Simulation Step 3700
ASCII
DATASET UNSTRUCTURED_GRID
POINTS 20213 double
-9.62773241e-04 4.15004001e-04 -8.70110506e-04
-8.52221583e-04 3.19779796e-04 -9.39412765e-04
-7.83275051e-04 3.26032029e-04 -9.96496666e-04
-7.66330958e-04 3.96624325e-04 -1.03569498e-03
-6.44295082e-04 2.71477320e-04 -1.06765676e-03
-6.36595511e-04 4.56430350e-04 -1.13837627e-03
-4.58728108e-04 2.91822336e-04 -1.17880217e-03
-3.94608758e-04 3.23740300e-04 -1.21083006e-03
-3.06382666e-04 1.87449001e-04 -1.18770732e-03
-2.66789684e-04 6.96044866e-04 -1.10091438e-03
-3.70501629e-05 4.72774576e-04 -1.19688650e-03
-1.37168093e-04 5.24217688e-04 -1.19078946e-03
-5.03590014e-05 1.21871364e-04 -1.13616067e-03
1.33877288e-04 1.40623716e-04 -1.18352897e-03
2.04898680e-04 1.78336931e-04 -1.19935285e-03
4.64721225e-04 2.21890313e-04 -1.14057470e-03
4.36019981e-04 3.98929569e-04 -1.06916360e-03
5.32707851e-04 1.98696781e-04 -1.09476388e-03
5.85959602e-04 1.33920134e-04 -9.05772006e-04
7.44976471e-04 3.70012336e-04 -8.75208635e-04
8.78937394e-04 1.15632757e-04 -7.13112552e-04
-9.05424323e-04 3.94885920e-04 -9.26311867e-04
-8.38781563e-04 3.93882783e-04 -9.80790397e-04
-8.36355174e-04 4.71229962e-04 -1.00751493e-03
-6.94946001e-04 4.08128020e-04 -1.08687744e-03
-6.86622278e-04 6.15884990e-04 -1.14599599e-03
-7.08216061e-04 4.95432783e-04 -1.10484800e-03
-5.74038254e-04 4.92416733e-04 -1.18146149e-03
-3.74778796e-04 4.14200905e-04 -1.23716269e-03
-2.18228743e-04 2.62214248e-04 -1.23579241e-03
-1.44369709e-04 2.24114042e-04 -1.23256218e-03
2.81697407e-05 1.65033090e-04 -1.20749706e-03
9.88179444e-05 2.02539670e-04 -1.22426235e-03
3.15694143e-04 3.34614341e-04 -1.24217129e-03
2.77036794e-04 4.12336224e-04 -1.27332874e-03
3.40983678e-04 2.62463925e-04 -1.20418751e-03
4.20090257e-04 2.74478542e-04 -1.18343595e-03
5.22210830e-04 2.75708122e-04 -1.13808427e-03
5.20795255e-04 1.21759227e-04 -1.04817956e-03
5.70238034e-04 3.38793413e-04 -1.13679544e-03
6.65096291e-04 2.39593867e-04 -1.03325330e-03
8.25078181e-04 1.93943873e-04 -8.60306228e-04
-8.98198628e-04 4.70608498e-04 -9.56768925e-04
-8.70710840e-04 5.49118555e-04 -9.99343694e-04
-8.99070142e-04 7.06146863e-04 -9.86897102e-04
-7.10778481e-04 3.25709028e-04 -1.04721476e-03
-7.69319126e-04 4.73345526e-04 -1.05700613e-03
-6.52736979e-04 5.42755784e-04 -1.15120739e-03
-4.53099469e-04 3.87425807e-04 -1.20841945e-03
-5.92011980e-04 3.93353736e-04 -1.14609444e-03
-2.88264551e-04 4.09584829e-04 -1.26091203e-03
-1.45170706e-04 3.00655225e-04 -1.26059049e-03
-3.73551569e-06 4.82083591e-04 -1.30673876e-03
8.18234989e-05 2.76827510e-04 -1.25705857e-03
2.17346712e-04 3.59182914e-04 -1.27107978e-03
3.61173501e-04 4.12746354e-04 -1.24967143e-03
2.69240629e-04 2.23344387e-04 -1.20904206e-03
4.48620564e-04 4.08645202e-04 -1.21496316e-03
5.31291565e-04 4.06845612e-04 -1.17536508e-03
4.80224286e-04 3.36847970e-04 -1.17939026e-03
6.41090792e-04 3.20660223e-04 -1.08714334e-03
7.25760162e-04 2.20873297e-04 -9.71633110e-04
7.58719774e-04 1.69638590e-04 -9.07550853e-04
-1.00835346e-03 5.19940708e-04 -8.51079572e-04
-9.30676654e-04 5.56343496e-04 -9.46469841e-04
-8.80306357e-04 6.28741035e-04 -1.00284706e-03
-7.41093590e-04 5.71021706e-04 -1.09883984e-03
-5.89453459e-04 5.75837473e-04 -1.19182595e-03
-5.27531344e-04 4.29338518e-04 -1.19081900e-03
-4.62796383e-04 4.70117494e-04 -1.22344333e-03
-2.33073776e-04 3.38674682e-04 -1.25602701e-03
-1.48291666e-04 3.74262833e-04 -1.28013040e-03
-6.80597346e-05 2.60362790e-04 -1.25205880e-03
6.42713982e-05 5.37278646e-04 -1.31464514e-03
5.02559901e-05 1.14901270e-04 -1.14356164e-03
9.27685001e-05 3.71215698e-04 -1.28552401e-03
1.68902741e-04 4.21995263e-04 -1.28936255e-03
2.29768880e-04 4.84143183e-04 -1.29417706e-03
3.95955641e-04 3.37038918e-04 -1.21788232e-03
4.55395388e-04 5.51917016e-04 -1.24102455e-03
6.85450210e-04 3.94242379e-04 -1.08098925e-03
7.03343306e-04 3.13306390e-04 -1.03667042e-03
7.63025556e-04 3.00982497e-04 -9.80293811e-04
8.40853934e-04 3.14983596e-04 -9.17650721e-04
-1.04257720e-03 6.08564490e-04 -8.25269640e-04
-8.31750901e-04 7.08441355e-04 -1.04651339e-03
-8.05125797e-04 5.52015143e-04 -1.04963871e-03
-6.21654944e-04 6.49832374e-04 -1.18596724e-03
-4.46570769e-04 5.78822004e-04 -1.24855837e-03
-5.12256052e-04 5.35998261e-04 -1.21786441e-03
-2.13148592e-04 4.26440229e-04 -1.28040912e-03
-1.48782179e-04 4.68280999e-04 -1.29652883e-03
-7.46147424e-05 4.24389423e-04 -1.29564591e-03
-1.93667137e-05 5.71396395e-04 -1.31739450e-03
4.02619123e-05 6.28279821e-04 -1.32304751e-03
5.05986178e-06 3.95596286e-04 -1.29321426e-03
1.25685447e-04 5.90087265e-04 -1.31866881e-03
2.68769425e-04 6.39256554e-04 -1.30941800e-03
1.44002279e-04 5.03002191e-04 -1.30646000e-03
3.20107594e-04 4.81937003e-04 -1.27723299e-03
4.14838072e-04 4.79970383e-04 -1.24700206e-03
6.17477189e-04 4.07415648e-04 -1.12757696e-03
7.51840940e-04 3.86310477e-04 -1.02865202e-03
8.10153021e-04 3.69665018e-04 -9.72220115e-04
7.91346584e-04 4.62164378e-04 -1.02048136e-03
-1.04861242e-03 7.47937822e-04 -8.28034782e-04
-9.45878798e-04 6.36635014e-04 -9.42804295e-04
-7.63017109e-04 7.35743133e-04 -1.09803130e-03
-8.13084907e-04 6.32203773e-04 -1.05836890e-03
-5.31664647e-04 6.22095961e-04 -1.22460657e-03
-3.47470314e-04 5.64194764e-04 -1.27397767e-03
-3.21463081e-04 4.83657317e-04 -1.26871594e-03
-2.48112647e-04 5.08250878e-04 -1.28633437e-03
-8.53917541e-05 5.19232589e-04 -1.30789614e-03
-1.11129577e-04 5.97787582e-04 -1.31437721e-03
-5.01959429e-05 6.53580565e-04 -1.32274326e-03
7.63797812e-05 4.51166740e-04 -1.30152968e-03
2.07462247e-04 5.67744861e-04 -1.31036112e-03
2.88306468e-04 5.54508487e-04 -1.29617663e-03
1.50498737e-04 3.15511586e-04 -1.26470555e-03
3.38718091e-04 7.05727893e-04 -1.29473013e-03
3.73643180e-04 5.47703638e-04 -1.27310745e-03
4.97953719e-04 4.81631024e-04 -1.20978706e-03
6.52347643e-04 4.84540793e-04 -1.11920452e-03
7.24420927e-04 4.67300805e-04 -1.07355739e-03
8.70678562e-04 5.16440769e-04 -9.64913300e-04
-1.00895635e-03 6.74572589e-04 -8.74135458e-04
-9.90218375e-04 5.86668227e-04 -8.87486311e-04
-8.11499874e-04 7.92282917e-04 -1.05703607e-03
-6.96377055e-04 6.98565020e-04 -1.14631329e-03
-5.56576121e-04 6.98959713e-04 -1.22130931e-03
-3.85808357e-04 6.34529976e-04 -1.27468270e-03
-2.72283067e-04 5.88311376e-04 -1.29340438e-03
-1.78296135e-04 5.46270347e-04 -1.30254566e-03
-2.01633074e-04 6.26058288e-04 -1.30765241e-03
-1.38226840e-04 6.81285406e-04 -1.31731527e-03
1.03998578e-05 7.08116496e-04 -1.32854443e-03
1.05183949e-04 6.77665377e-04 -1.32509565e-03
1.90484975e-04 6.52692390e-04 -1.31878347e-03
1.75662759e-04 7.33465679e-04 -1.32371635e-03
2.58653013e-04 7.23047424e-04 -1.31267289e-03
5.02555044e-04 6.18537711e-04 -1.22467293e-03
4.92951153e-04 6.97348962e-04 -1.23250071e-03
5.77833602e-04 4.79841941e-04 -1.16579752e-03
5.41417346e-04 5.54368956e-04 -1.19732985e-03
8.18564798e-04 5.43369821e-04 -1.01894400e-03
7.80889178e-04 6.23654741e-04 -1.05442171e-03
-1.03756667e-03 8.25828579e-04 -8.26612516e-04
-9.58272383e-04 7.14966770e-04 -9.30501833e-04
-8.76070376e-04 7.78067174e-04 -1.00515192e-03
-7.54575846e-04 6.54000103e-04 -1.10494024e-03
-4.69002033e-04 6.64095591e-04 -1.25391387e-03
-3.06638165e-04 6.60291507e-04 -1.29395877e-03
-3.20328472e-04 7.38672453e-04 -1.29543868e-03
-2.31063807e-04 7.02744088e-04 -1.30669230e-03
-1.67634238e-04 7.62471027e-04 -1.31704091e-03
-7.74194388e-05 7.39092319e-04 -1.32508596e-03
-1.08718677e-05 7.89910660e-04 -1.32842467e-03
8.00613745e-05 7.56387088e-04 -1.32876537e-03
1.49603157e-04 8.10301201e-04 -1.32270366e-03
2.33795643e-04 8.06768040e-04 -1.31371064e-03
3.18856438e-04 7.90025660e-04 -1.29652146e-03
4.23405785e-04 6.29291920e-04 -1.26073547e-03
4.14468511e-04 7.08893375e-04 -1.26795850e-03
5.62198856e-04 7.24717000e-04 -1.19625250e-03
6.14555320e-04 5.62143507e-04 -1.15655236e-03
7.52926802e-04 5.43345241e-04 -1.06812971e-03
8.21986530e-04 7.74620636e-04 -1.02690375e-03
-9.98397506e-04 7.66972701e-04 -8.83624697e-04
-9.32076912e-04 7.98677226e-04 -9.43135240e-04
-8.71176267e-04 8.55170063e-04 -9.96088443e-04
-5.62428845e-04 7.80491687e-04 -1.22071669e-03
-4.87798209e-04 7.44929572e-04 -1.25124297e-03
-3.97475879e-04 7.15845064e-04 -1.27671579e-03
-3.41078307e-04 8.17901694e-04 -1.28929698e-03
-2.53907832e-04 7.88305959e-04 -1.30509442e-03
-1.88244506e-04 8.44782328e-04 -1.31105708e-03
-1.00841655e-04 8.20740063e-04 -1.32261075e-03
-3.52613278e-05 8.69424790e-04 -1.32245483e-03
6.02894622e-05 8.35649653e-04 -1.32563469e-03
1.27738635e-04 8.90342648e-04 -1.31627716e-03
2.09243320e-04 8.87316981e-04 -1.30794503e-03
2.92185688e-04 8.69586332e-04 -1.29409757e-03
3.97765469e-04 7.87708684e-04 -1.27153630e-03
4.22936964e-04 9.32311540e-04 -1.23211857e-03
4.76022018e-04 7.77103147e-04 -1.23701189e-03
5.73897658e-04 6.42911657e-04 -1.18533953e-03
6.86912895e-04 5.61478807e-04 -1.11182308e-03
7.71180985e-04 7.10461980e-04 -1.06492606e-03
-9.78336242e-04 8.53311075e-04 -8.87095304e-04
-8.53013189e-04 9.30391159e-04 -9.88382720e-04
-7.47466078e-04 8.26286664e-04 -1.10065459e-03
-6.30309083e-04 7.32224824e-04 -1.18622273e-03
-5.61116306e-04 8.69742108e-04 -1.20841559e-03
-4.20160821e-04 7.88802065e-04 -1.27352907e-03
-4.23069126e-04 8.68998986e-04 -1.26690532e-03
-2.70341712e-04 8.72989725e-04 -1.29717375e-03
-2.01202528e-04 9.33286484e-04 -1.29920445e-03
-1.22182271e-04 9.03402250e-04 -1.31301142e-03
-5.42581131e-05 9.48674427e-04 -1.30902200e-03
3.47007931e-05 9.10335453e-04 -1.31676551e-03
1.05635688e-04 9.65983469e-04 -1.30203910e-03
1.85786181e-04 9.72671554e-04 -1.29149004e-03
2.64371130e-04 9.50347771e-04 -1.28192412e-03
3.69808810e-04 8.65244041e-04 -1.27157478e-03
4.93555458e-04 9.58936681e-04 -1.19636712e-03
4.50920626e-04 8.56687270e-04 -1.23853144e-03
6.33852719e-04 7.27674205e-04 -1.15651619e-03
7.17167748e-04 6.39010617e-04 -1.09874378e-03
8.08412497e-04 8.57674573e-04 -1.02977500e-03
-9.20075646e-04 8.87337913e-04 -9.36737825e-04
-8.46224456e-04 1.00796169e-03 -9.69369655e-04
[...]
POINT_DATA 20213
SCALARS pressure double 1
LOOKUP_TABLE default
8.29440487e+02
1.03226357e+03
9.86362341e+02
0.00000000e+00
0.00000000e+00
0.00000000e+00
0.00000000e+00
0.00000000e+00
0.00000000e+00
9.99736884e+02
1.08693601e+03
1.02445504e+03
5.20274912e+02
0.00000000e+00
0.00000000e+00
0.00000000e+00
7.32658033e+02
5.82851125e+02
4.79760672e+02
5.92702055e+02
2.58991845e+02
0.00000000e+00
8.46878914e+02
0.00000000e+00
0.00000000e+00
0.00000000e+00
0.00000000e+00
4.41882833e+02
0.00000000e+00
7.14891968e+02
7.69471410e+02
0.00000000e+00
0.00000000e+00
6.79507249e+02
8.69985825e+02
0.00000000e+00
5.06809860e+02
0.00000000e+00
4.51867199e+02
0.00000000e+00
0.00000000e+00
0.00000000e+00
7.95789482e+02
0.00000000e+00
7.68412840e+02
0.00000000e+00
0.00000000e+00
0.00000000e+00
0.00000000e+00
0.00000000e+00
0.00000000e+00
8.40304634e+02
9.42998797e+02
0.00000000e+00
6.94004888e+02
0.00000000e+00
0.00000000e+00
0.00000000e+00
0.00000000e+00
0.00000000e+00
0.00000000e+00
0.00000000e+00
0.00000000e+00
5.85617278e+02
0.00000000e+00
6.99801750e+02
0.00000000e+00
5.76332532e+02
0.00000000e+00
4.12674944e+02
0.00000000e+00
9.14919955e+02
0.00000000e+00
0.00000000e+00
4.09260855e+02
0.00000000e+00
0.00000000e+00
7.34668524e+02
7.06383540e+02
0.00000000e+00
0.00000000e+00
0.00000000e+00
0.00000000e+00
0.00000000e+00
0.00000000e+00
6.89639697e+02
5.15001665e+02
5.41287418e+02
0.00000000e+00
6.07235050e+02
0.00000000e+00
1.03456158e+03
1.04864049e+03
1.04605068e+03
1.09242338e+03
9.30430830e+02
9.33750497e+02
0.00000000e+00
0.00000000e+00
7.57368997e+02
0.00000000e+00
0.00000000e+00
0.00000000e+00
0.00000000e+00
0.00000000e+00
0.00000000e+00
0.00000000e+00
0.00000000e+00
5.57130113e+02
5.65619673e+02
0.00000000e+00
0.00000000e+00
0.00000000e+00
1.02341280e+03
1.02439458e+03
1.06787682e+03
0.00000000e+00
0.00000000e+00
7.96066740e+02
6.53369489e+02
0.00000000e+00
0.00000000e+00
0.00000000e+00
0.00000000e+00
0.00000000e+00
0.00000000e+00
0.00000000e+00
5.22428730e+02
6.99755090e+02
0.00000000e+00
0.00000000e+00
0.00000000e+00
0.00000000e+00
8.07848858e+02
0.00000000e+00
0.00000000e+00
1.26847439e+03
1.08767611e+03
9.37492304e+02
0.00000000e+00
1.10875131e+03
7.42695192e+02
9.28695764e+02
0.00000000e+00
0.00000000e+00
0.00000000e+00
0.00000000e+00
0.00000000e+00
0.00000000e+00
0.00000000e+00
0.00000000e+00
0.00000000e+00
0.00000000e+00
7.29377187e+02
0.00000000e+00
8.41050994e+02
0.00000000e+00
1.18555360e+03
1.24275564e+03
0.00000000e+00
1.23139761e+03
1.29150829e+03
0.00000000e+00
1.12034999e+03
0.00000000e+00
0.00000000e+00
0.00000000e+00
6.62119345e+02
0.00000000e+00
7.44004462e+02
0.00000000e+00
0.00000000e+00
6.01769873e+02
0.00000000e+00
0.00000000e+00
8.64952198e+02
9.85173169e+02
0.00000000e+00
1.09139477e+03
1.30743813e+03
0.00000000e+00
1.30651910e+03
1.49878926e+03
1.30124801e+03
1.31537133e+03
1.22227265e+03
0.00000000e+00
0.00000000e+00
7.27193055e+02
6.44618875e+02
7.53247783e+02
0.00000000e+00
0.00000000e+00
0.00000000e+00
0.00000000e+00
0.00000000e+00
8.92217802e+02
9.81451534e+02
1.11761076e+03
1.21957951e+03
1.19500729e+03
0.00000000e+00
1.33857585e+03
1.55235826e+03
1.37511493e+03
9.93667981e+02
1.29693822e+03
0.00000000e+00
0.00000000e+00
0.00000000e+00
7.94989807e+02
0.00000000e+00
0.00000000e+00
0.00000000e+00
0.00000000e+00
0.00000000e+00
6.93467052e+02
9.15539235e+02
0.00000000e+00
1.07078223e+03
8.76777286e+02
1.08293698e+03
1.14788768e+03
1.27878228e+03
1.41250682e+03
1.47911564e+03
1.14882905e+03
0.00000000e+00
8.29594144e+02
7.15943563e+02
0.00000000e+00
0.00000000e+00
0.00000000e+00
8.31548329e+02
0.00000000e+00
0.00000000e+00
8.12074149e+02
0.00000000e+00
0.00000000e+00
0.00000000e+00
0.00000000e+00
0.00000000e+00
1.18308642e+03
0.00000000e+00
0.00000000e+00
1.39657686e+03
0.00000000e+00
8.35911603e+02
4.96635711e+02
0.00000000e+00
0.00000000e+00
0.00000000e+00
0.00000000e+00
7.86553279e+02
8.70135992e+02
8.90837442e+02
0.00000000e+00
1.02584873e+03
0.00000000e+00
7.66383961e+02
0.00000000e+00
9.22139718e+02
1.13203258e+03
1.03726713e+03
9.51834129e+02
1.19365590e+03
8.91369141e+02
0.00000000e+00
0.00000000e+00
0.00000000e+00
0.00000000e+00
0.00000000e+00
0.00000000e+00
0.00000000e+00
8.75741821e+02
9.41074896e+02
8.95936684e+02
1.01745088e+03
0.00000000e+00
1.05811332e+03
8.72989669e+02
0.00000000e+00
0.00000000e+00
0.00000000e+00
8.81439681e+02
0.00000000e+00
9.47733592e+02
0.00000000e+00
0.00000000e+00
0.00000000e+00
0.00000000e+00
0.00000000e+00
5.89938439e+02
4.94388915e+02
8.40963562e+02
0.00000000e+00
8.36291285e+02
0.00000000e+00
1.00745394e+03
1.06091380e+03
1.02637996e+03
8.73519103e+02
0.00000000e+00
0.00000000e+00
0.00000000e+00
0.00000000e+00
7.59603037e+02
0.00000000e+00
0.00000000e+00
4.71785114e+02
0.00000000e+00
0.00000000e+00
0.00000000e+00
8.31424669e+02
8.97196336e+02
0.00000000e+00
8.38142651e+02
0.00000000e+00
0.00000000e+00
9.97369270e+02
1.03831396e+03
0.00000000e+00
9.16609122e+02
0.00000000e+00
0.00000000e+00
0.00000000e+00
7.48647587e+02
7.14550242e+02
0.00000000e+00
0.00000000e+00
6.92907596e+02
0.00000000e+00
0.00000000e+00
0.00000000e+00
7.30433407e+02
8.86847194e+02
0.00000000e+00
1.20077652e+03
0.00000000e+00
0.00000000e+00
8.87185352e+02
8.98082408e+02
9.16916031e+02
8.67749264e+02
0.00000000e+00
0.00000000e+00
0.00000000e+00
0.00000000e+00
8.12382199e+02
0.00000000e+00
6.26954636e+02
0.00000000e+00
6.02622575e+02
7.21739718e+02
7.17238575e+02
7.67523425e+02
8.47568942e+02
9.42419536e+02
1.03324731e+03
1.03400543e+03
0.00000000e+00
0.00000000e+00
0.00000000e+00
9.03125661e+02
1.00979320e+03
0.00000000e+00
0.00000000e+00
0.00000000e+00
7.72659802e+02
0.00000000e+00
7.54340551e+02
7.80100980e+02
8.18080201e+02
0.00000000e+00
0.00000000e+00
0.00000000e+00
0.00000000e+00
7.46507469e+02
0.00000000e+00
1.15506208e+03
1.21318854e+03
0.00000000e+00
0.00000000e+00
9.81866744e+02
0.00000000e+00
9.97841710e+02
1.01788745e+03
0.00000000e+00
9.34641166e+02
0.00000000e+00
8.82119278e+02
0.00000000e+00
7.96383395e+02
9.15103666e+02
0.00000000e+00
0.00000000e+00
7.72476746e+02
7.10192804e+02
0.00000000e+00
0.00000000e+00
1.26717967e+03
1.10060161e+03
0.00000000e+00
8.99208932e+02
0.00000000e+00
1.10963645e+03
1.17353934e+03
1.14587598e+03
1.08153193e+03
0.00000000e+00
8.39263573e+02
0.00000000e+00
8.64907970e+02
1.04465169e+03
1.09046291e+03
0.00000000e+00
9.63777009e+02
9.05451298e+02
0.00000000e+00
6.24987150e+02
1.36623050e+03
1.30212923e+03
1.17209755e+03
1.10512425e+03
0.00000000e+00
8.71236266e+02
0.00000000e+00
1.06794664e+03
1.01400527e+03
9.22774894e+02
8.77089273e+02
8.27157827e+02
8.28978565e+02
7.96810082e+02
0.00000000e+00
0.00000000e+00
9.94628945e+02
0.00000000e+00
7.64387862e+02
5.99081862e+02
0.00000000e+00
0.00000000e+00
9.11565477e+02
0.00000000e+00
9.31850245e+02
7.45786403e+02
0.00000000e+00
0.00000000e+00
0.00000000e+00
0.00000000e+00
1.08793225e+03
1.19942047e+03
1.29483910e+03
4.32662452e+02
1.22581115e+03
1.45369385e+03
1.12411013e+03
6.82900950e+02
9.91540815e+02
9.44131483e+02
0.00000000e+00
0.00000000e+00
0.00000000e+00
2.09856635e+03
8.35727353e+02
1.28263888e+03
9.66903281e+02
1.07425185e+03
1.01273748e+03
1.20967870e+03
8.44546031e+02
1.33841466e+03
1.92660388e+03
1.59639178e+03
9.12815144e+02
1.65153659e+03
1.58294582e+03
1.02252217e+03
1.02882761e+03
7.02490005e+02
1.19607299e+03
9.09912744e+02
0.00000000e+00
7.40670473e+02
1.05703146e+03
1.13041310e+03
1.12426558e+03
1.35913463e+03
2.00419416e+03
1.13625565e+03
4.69237483e+02
0.00000000e+00
5.88191555e+02
9.91007538e+02
0.00000000e+00
0.00000000e+00
0.00000000e+00
1.92741230e+03
8.46021331e+02
1.41608664e+03
8.12238604e+02
1.17075146e+03
1.15008061e+03
0.00000000e+00
0.00000000e+00
8.85402979e+02
1.49936840e+03
1.99028815e+03
2.05418015e+03
2.10165914e+03
1.07788566e+03
1.27647433e+03
1.08033299e+03
1.99816689e+03
1.03730567e+03
1.22343612e+03
1.36409961e+03
1.25426315e+03
1.27401732e+03
1.20557786e+03
1.18371350e+03
1.62732558e+03
9.68848113e+02
1.26461830e+03
6.60621577e+02
0.00000000e+00
1.06761493e+03
1.19243364e+03
1.04356470e+03
1.65906839e+03
1.31703563e+03
1.71717106e+03
1.08356012e+03
1.22133038e+03
1.37049247e+03
1.37125935e+03
2.00311110e+03
9.94043506e+02
2.18868991e+03
2.11291358e+03
1.57766577e+03
1.56721573e+03
1.27484589e+03
1.24187462e+03
9.67357370e+02
7.86614894e+02
0.00000000e+00
1.86660695e+03
9.77688942e+02
1.06050479e+03
1.79285461e+03
0.00000000e+00
1.48368832e+03
1.22679000e+03
9.07592709e+02
1.26943486e+03
1.51522431e+03
1.08675666e+03
1.32394213e+03
1.22624740e+03
1.62055868e+03
0.00000000e+00
2.07420078e+03
9.35571616e+02
6.71299265e+02
1.12188977e+03
0.00000000e+00
0.00000000e+00
1.21230321e+03
1.18797261e+03
1.16203829e+03
1.31170589e+03
1.06481762e+03
1.15965536e+03
1.17863659e+03
9.76203610e+02
1.85624035e+03
1.21924633e+03
1.34160853e+03
2.10823471e+03
1.26162462e+03
1.06812273e+03
1.29710218e+03
9.89263824e+02
6.43455537e+02
7.23118369e+02
8.67438213e+02
0.00000000e+00
0.00000000e+00
1.02383449e+03
0.00000000e+00
1.22599463e+03
1.22276787e+03
1.26722361e+03
1.03636885e+03
1.36356574e+03
1.31927742e+03
1.14040245e+03
1.07059614e+03
1.17061216e+03
2.03609728e+03
1.15724336e+03
1.30456628e+03
1.71313243e+03
7.56229430e+02
8.72443279e+02
0.00000000e+00
9.15662394e+02
8.36243936e+02
0.00000000e+00
1.44510179e+03
6.01846324e+02
1.98075426e+03
1.98314365e+03
1.22024008e+03
1.18762137e+03
1.24190369e+03
1.36866074e+03
2.14571429e+03
1.45051359e+03
1.75896439e+03
2.09955400e+03
1.10811080e+03
9.38797553e+02
7.18393288e+02
1.93069010e+03
1.66106053e+03
7.05426794e+02
1.09585617e+03
8.80386418e+02
0.00000000e+00
1.39457993e+03
0.00000000e+00
1.10332008e+03
1.15602267e+03
1.09962606e+03
9.33762961e+02
9.04290876e+02
1.19709976e+03
8.98075499e+02
1.12195185e+03
1.02842565e+03
1.82056160e+03
9.87124888e+02
1.07218897e+03
9.16072598e+02
6.88060239e+02
9.48008669e+02
9.89936716e+02
9.71555792e+02
0.00000000e+00
0.00000000e+00
1.31913076e+03
0.00000000e+00
1.26949557e+03
1.16619325e+03
1.10847412e+03
1.11284651e+03
1.09483195e+03
1.21034545e+03
1.22065974e+03
1.10709397e+03
1.44601427e+03
2.21521714e+03
1.55710428e+03
8.08293945e+02
7.20151682e+02
1.36795701e+03
2.14084014e+03
8.68154761e+02
1.13015872e+03
0.00000000e+00
0.00000000e+00
1.22479713e+03
0.00000000e+00
1.13168140e+03
1.06616364e+03
1.11280406e+03
1.05376888e+03
8.19963400e+02
1.85284731e+03
1.07029145e+03
1.73474916e+03
1.28164985e+03
1.29736791e+03
9.37230515e+02
1.14908755e+03
8.42524785e+02
8.19606881e+02
9.13577239e+02
0.00000000e+00
5.32893041e+02
0.00000000e+00
0.00000000e+00
1.38056256e+03
7.35469969e+02
1.31836263e+03
1.41198045e+03
1.12436970e+03
1.28502406e+03
1.27047565e+03
2.12195470e+03
1.16853840e+03
1.17869294e+03
1.82550742e+03
2.27024768e+03
1.86191884e+03
9.44078626e+02
1.04130438e+03
1.09329768e+03
1.86647133e+03
6.23491408e+02
1.41287273e+03
0.00000000e+00
7.40429485e+02
1.12642342e+03
0.00000000e+00
1.31988857e+03
1.14931929e+03
1.07824292e+03
1.24557963e+03
1.23156577e+03
1.20830580e+03
9.40481246e+02
8.31091345e+02
9.41615142e+02
1.13594624e+03
9.11897053e+02
8.92481197e+02
9.18736003e+02
1.05974185e+03
1.16294263e+03
0.00000000e+00
9.08998508e+02
8.66653116e+02
7.81547093e+02
1.31104075e+03
1.41699836e+03
1.23422966e+03
1.35578687e+03
1.13997093e+03
1.28475921e+03
1.66996061e+03
1.15016684e+03
1.03757690e+03
1.40416717e+03
9.93189821e+02
9.64262088e+02
9.24142018e+02
1.11330291e+03
1.23965568e+03
1.64320592e+03
1.07830135e+03
1.14458720e+03
9.00002191e+02
8.51739250e+02
8.07666794e+02
1.51705006e+03
1.41640663e+03
1.32174908e+03
1.12910931e+03
9.47402942e+02
1.25309940e+03
1.19935377e+03
1.08836917e+03
1.12424770e+03
1.11718318e+03
1.26485189e+03
1.13950344e+03
9.84225450e+02
1.05116162e+03
0.00000000e+00
1.31707698e+03
1.03552405e+03
1.34550480e+03
9.51036755e+02
7.83240985e+02
8.98825180e+02
1.50062116e+03
1.42754797e+03
1.16393460e+03
1.66253086e+03
1.10577019e+03
1.18223577e+03
1.20750727e+03
1.25372190e+03
1.17353793e+03
1.03689785e+03
9.91314925e+02
1.29139317e+03
1.23420361e+03
1.50724480e+03
1.17280469e+03
1.70296120e+03
1.21077555e+03
1.61419674e+03
9.77078438e+02
0.00000000e+00
0.00000000e+00
1.43014648e+03
1.24895018e+03
1.40525425e+03
1.08821202e+03
1.30231819e+03
1.25221410e+03
1.15336907e+03
1.24377633e+03
1.03521829e+03
1.19722897e+03
1.01915569e+03
1.56869308e+03
1.33029715e+03
1.21424076e+03
1.14884141e+03
1.25281360e+03
1.29493708e+03
1.14465372e+03
1.12220220e+03
0.00000000e+00
0.00000000e+00
1.36492187e+03
1.28647437e+03
1.13492328e+03
1.37534158e+03
1.29596641e+03
1.04166956e+03
1.09713735e+03
1.00836439e+03
0.00000000e+00
9.68167400e+02
9.59399944e+02
0.00000000e+00
0.00000000e+00
1.15410325e+03
1.26858892e+03
1.24609345e+03
1.13497070e+03
1.12059649e+03
1.34517547e+03
0.00000000e+00
1.30500883e+03
1.43993666e+03
1.19044469e+03
1.41870328e+03
1.02275275e+03
1.20043230e+03
9.29139018e+02
9.24541274e+02
1.13937612e+03
1.03016516e+03
1.23816209e+03
1.18050933e+03
1.49411395e+03
1.05555959e+03
1.09689880e+03
1.12012462e+03
1.11449097e+03
1.27588417e+03
1.28385337e+03
1.79353114e+03
0.00000000e+00
1.59079572e+03
1.43019617e+03
1.36687666e+03
1.32219052e+03
0.00000000e+00
0.00000000e+00
0.00000000e+00
1.05426837e+03
9.51126904e+02
0.00000000e+00
0.00000000e+00
0.00000000e+00
0.00000000e+00
0.00000000e+00
0.00000000e+00
1.06396199e+03
9.34710747e+02
9.67022391e+02
8.29331216e+02
0.00000000e+00
0.00000000e+00
9.50720915e+02
7.88430088e+02
9.85064157e+02
0.00000000e+00
9.11555619e+02
6.66459299e+02
0.00000000e+00
0.00000000e+00
0.00000000e+00
7.34777908e+02
7.84123051e+02
1.11896831e+03
1.43391640e+03
0.00000000e+00
9.73288314e+02
0.00000000e+00
7.45371319e+02
1.19189237e+03
0.00000000e+00
0.00000000e+00
0.00000000e+00
8.59427843e+02
1.50595332e+03
1.01466455e+03
8.16040005e+02
1.88066452e+03
9.31427192e+02
8.68784445e+02
7.10868620e+02
1.39601799e+03
0.00000000e+00
1.24414891e+03
1.35772998e+03
1.00175300e+03
0.00000000e+00
1.28361324e+03
9.27110851e+02
1.61432617e+03
9.82583207e+02
1.06103617e+03
9.62198157e+02
0.00000000e+00
0.00000000e+00
1.04970334e+03
1.50986498e+03
1.19400402e+03
2.07926005e+03
1.43453353e+03
1.55129907e+03
1.14200050e+03
1.67735580e+03
1.18580291e+03
2.16033596e+03
2.01700617e+03
2.17978000e+03
1.33939110e+03
1.24493388e+03
1.44044704e+03
2.24281048e+03
1.60196392e+03
1.64975303e+03
9.48762323e+02
4.93688458e+02
7.13688460e+02
9.24101127e+02
1.60523508e+03
1.21122346e+03
1.74920264e+03
9.63052559e+02
1.52847342e+03
8.33178048e+02
1.77422854e+03
1.02341433e+03
1.14237158e+03
1.33847106e+03
1.40596084e+03
2.22417550e+03
2.17497371e+03
2.01456005e+03
1.97390699e+03
1.41776500e+03
1.93129584e+03
2.25781231e+03
0.00000000e+00
0.00000000e+00
1.30514509e+03
2.12986351e+03
1.86890962e+03
1.86380351e+03
1.79145833e+03
1.01637964e+03
1.28921794e+03
8.09041453e+02
1.60732642e+03
1.40154239e+03
2.20948066e+03
2.04289810e+03
1.21955728e+03
2.12590704e+03
8.33809914e+02
1.69761976e+03
2.28950400e+03
1.67635095e+03
1.87983887e+03
0.00000000e+00
0.00000000e+00
1.21697656e+03
2.18202715e+03
1.22559709e+03
1.41487807e+03
1.45556384e+03
1.18419316e+03
1.12971555e+03
1.95829085e+03
1.85276764e+03
1.97174237e+03
1.40542057e+03
1.99004526e+03
2.01570001e+03
1.96903282e+03
1.76010305e+03
1.03740230e+03
2.30019026e+03
2.02069916e+03
2.02072038e+03
7.53404423e+02
0.00000000e+00
1.20760615e+03
2.18539333e+03
1.92826582e+03
1.64502635e+03
1.20070374e+03
9.91179417e+02
1.30439361e+03
1.64385121e+03
1.55760880e+03
1.33399328e+03
7.16177010e+02
1.85683967e+03
7.91025717e+02
1.33236211e+03
2.28647366e+03
1.23166919e+03
1.60728140e+03
2.29316100e+03
1.11480931e+03
9.24044028e+02
0.00000000e+00
0.00000000e+00
1.65198009e+03
1.65206508e+03
1.39107544e+03
1.35665733e+03
1.13437699e+03
2.19193920e+03
1.13013368e+03
1.03597678e+03
1.45101489e+03
1.31141170e+03
1.63234249e+03
1.57302259e+03
1.63048920e+03
1.02050779e+03
1.67069124e+03
2.06995755e+03
1.79100775e+03
1.07015023e+03
1.03276714e+03
0.00000000e+00
4.37395880e+02
2.15428661e+03
1.18034004e+03
1.45629358e+03
1.00459390e+03
1.83164631e+03
1.66808344e+03
1.46558214e+03
1.17863068e+03
1.25048450e+03
1.78103786e+03
2.35648829e+03
2.21213434e+03
2.07851438e+03
1.19860400e+03
2.16717470e+03
1.38039306e+03
2.34776043e+03
1.05276595e+03
9.80684355e+02
0.00000000e+00
5.84565403e+02
1.48029000e+03
1.02667737e+03
1.71898813e+03
1.85166593e+03
1.51221186e+03
2.18080936e+03
8.16220925e+02
1.19673056e+03
1.69738001e+03
2.04832481e+03
1.58664413e+03
2.29602042e+03
1.27208037e+03
2.37990324e+03
1.05830710e+03
1.07595786e+03
2.27783835e+03
1.16004727e+03
1.28683005e+03
0.00000000e+00
5.20424865e+02
1.49373505e+03
1.09951503e+03
1.58600075e+03
1.15505536e+03
1.27807405e+03
1.23999502e+03
1.99731695e+03
2.00965506e+03
1.20624180e+03
1.92654130e+03
0.00000000e+00
1.90674071e+03
1.42481259e+03
8.43722052e+02
1.40951455e+03
8.25858228e+02
2.31421886e+03
9.31813376e+02
1.04016573e+03
6.27609221e+02
0.00000000e+00
2.03869425e+03
1.23549294e+03
1.28762220e+03
2.11699661e+03
1.23995966e+03
1.31657353e+03
1.77797755e+03
2.08324894e+03
1.36892733e+03
1.22911171e+03
1.27857539e+03
2.18003605e+03
1.05104768e+03
1.24894481e+03
9.16881266e+02
1.10813551e+03
1.93247846e+03
0.00000000e+00
0.00000000e+00
6.31404746e+02
0.00000000e+00
2.06326137e+03
1.19261334e+03
2.15573023e+03
2.19154221e+03
1.95998880e+03
1.55139528e+03
2.11914143e+03
1.51181721e+03
1.18708209e+03
1.52960002e+03
1.57606905e+03
1.60250551e+03
2.28566434e+03
1.98512802e+03
2.00005591e+03
9.96498877e+02
2.20643545e+03
0.00000000e+00
9.69349795e+02
7.07320625e+02
0.00000000e+00
1.83346556e+03
1.30874507e+03
1.92278911e+03
1.30899073e+03
1.28644100e+03
2.01858983e+03
1.29805299e+03
1.28019894e+03
1.47211674e+03
1.69584906e+03
1.99029758e+03
1.36999003e+03
1.03884577e+03
1.15766011e+03
1.74523495e+03
1.38660895e+03
1.01037046e+03
0.00000000e+00
7.31469174e+02
0.00000000e+00
1.45094000e+03
1.49610286e+03
1.43836538e+03
1.60360367e+03
1.43655440e+03
1.36262196e+03
1.15316123e+03
1.46029440e+03
1.23705460e+03
1.28701017e+03
1.25291535e+03
2.15371937e+03
9.84756867e+02
1.56702851e+03
1.91582154e+03
1.80930591e+03
1.36495066e+03
1.70069441e+03
7.71479958e+02
8.40392458e+02
0.00000000e+00
1.54867508e+03
1.65474072e+03
1.47335428e+03
2.14450402e+03
1.75397409e+03
1.51802681e+03
1.24107611e+03
1.85439102e+03
1.44288077e+03
1.77430560e+03
2.07363910e+03
1.77435809e+03
1.26502232e+03
1.29981485e+03
2.16319253e+03
2.35284575e+03
1.52566625e+03
1.10195522e+03
7.91380096e+02
0.00000000e+00
1.03864692e+03
1.50157742e+03
2.20731263e+03
1.57695559e+03
1.89864209e+03
2.11683798e+03
2.19613073e+03
1.26632549e+03
1.36955977e+03
1.59805799e+03
2.16685799e+03
1.27275142e+03
2.26193533e+03
1.19452922e+03
2.00662755e+03
2.36310990e+03
2.07862912e+03
1.50295779e+03
2.27998309e+03
1.02483155e+03
0.00000000e+00
1.33397844e+03
1.52707055e+03
1.43784246e+03
1.26826441e+03
1.91996392e+03
1.48208754e+03
1.51637255e+03
1.38299953e+03
1.06010237e+03
1.03708632e+03
1.11810048e+03
1.10795586e+03
1.11681372e+03
1.21925549e+03
1.34238207e+03
1.43959918e+03
1.81001721e+03
1.62687681e+03
1.32196045e+03
1.19633744e+03
0.00000000e+00
1.48091838e+03
1.48458099e+03
1.56378874e+03
1.52431857e+03
1.31569087e+03
1.93903209e+03
1.11492605e+03
1.47829624e+03
2.06829081e+03
1.87615082e+03
1.94296967e+03
1.72734177e+03
2.15265553e+03
1.15379239e+03
1.29172160e+03
1.46924141e+03
1.90748859e+03
1.77360032e+03
2.25421346e+03
1.27313254e+03
0.00000000e+00
1.48982635e+03
1.35966240e+03
1.12084136e+03
1.12788083e+03
1.41694118e+03
1.25006245e+03
1.14177004e+03
0.00000000e+00
8.24943174e+02
7.71065634e+02
8.54969174e+02
9.43131133e+02
0.00000000e+00
9.21699484e+02
1.23806913e+03
1.11793342e+03
1.31676698e+03
1.17116804e+03
1.56136828e+03
1.07319249e+03
0.00000000e+00
1.51466968e+03
1.47993094e+03
1.44031123e+03
1.34089125e+03
1.15662499e+03
0.00000000e+00
0.00000000e+00
1.02209658e+03
0.00000000e+00
7.33671650e+02
0.00000000e+00
8.88920702e+02
0.00000000e+00
0.00000000e+00
9.03062172e+02
0.00000000e+00
0.00000000e+00
8.94843329e+02
0.00000000e+00
0.00000000e+00
0.00000000e+00
0.00000000e+00
7.54396745e+02
7.71372525e+02
1.40147818e+03
8.25472907e+02
9.85648471e+02