# vtk DataFile Version 3.0
MPS 3D Simulation Step 4000
ASCII
DATASET UNSTRUCTURED_GRID
POINTS 20213 double
-1.00108440e-03 3.81166613e-04 -8.84603264e-04
-8.81881312e-04 2.60669151e-04 -9.49582090e-04
-8.10167152e-04 3.08882740e-04 -1.03914270e-03
-7.71987703e-04 3.62231377e-04 -1.09312082e-03
-6.72052358e-04 2.32871855e-04 -1.10152141e-03
-6.36972172e-04 4.22687952e-04 -1.18534494e-03
-4.76176566e-04 2.51034536e-04 -1.21157118e-03
-4.13590194e-04 3.01943690e-04 -1.25283128e-03
-2.75173225e-04 1.64529592e-04 -1.23087197e-03
-2.69460972e-04 6.88764641e-04 -1.16262203e-03
-4.03388063e-05 5.03300953e-04 -1.26350040e-03
-1.35521979e-04 5.52053594e-04 -1.26081851e-03
-4.29889214e-05 1.29972786e-04 -1.13273370e-03
1.31078427e-04 1.28036538e-04 -1.23595087e-03
2.12281324e-04 1.54021073e-04 -1.24698302e-03
5.01746366e-04 1.69055097e-04 -1.14435791e-03
4.20355276e-04 4.44864826e-04 -1.16243507e-03
5.87839168e-04 1.83547278e-04 -1.11227594e-03
6.11558725e-04 2.22815041e-04 -9.41146585e-04
7.67865325e-04 3.47259866e-04 -9.50483554e-04
8.80941199e-04 1.22501529e-04 -7.37867565e-04
-9.40008055e-04 3.53604037e-04 -9.37648384e-04
-8.77278203e-04 3.32105245e-04 -9.90018746e-04
-8.38780729e-04 3.92701943e-04 -1.04631732e-03
-7.04334991e-04 3.85631629e-04 -1.14105788e-03
-6.89233282e-04 5.80863602e-04 -1.18036194e-03
-7.12487414e-04 4.64555626e-04 -1.15433483e-03
-5.72668225e-04 4.72376211e-04 -1.22268428e-03
-4.07077124e-04 3.88862665e-04 -1.27667136e-03
-2.27520601e-04 2.16792004e-04 -1.27053809e-03
-1.46605971e-04 1.98970406e-04 -1.27404090e-03
4.93350147e-05 1.70125979e-04 -1.26892295e-03
1.40040990e-04 1.97188237e-04 -1.28075964e-03
3.19663062e-04 2.89768071e-04 -1.27904665e-03
2.98703763e-04 3.65623767e-04 -1.30944401e-03
3.65935523e-04 2.09148282e-04 -1.22875267e-03
4.56078888e-04 2.32237006e-04 -1.20342628e-03
5.44293490e-04 2.28691697e-04 -1.16194076e-03
5.39432555e-04 1.18905021e-04 -1.07322252e-03
5.88232056e-04 2.91517927e-04 -1.16328751e-03
7.01066860e-04 2.02903751e-04 -1.06156982e-03
8.53175144e-04 1.62108785e-04 -9.10608555e-04
-9.07662137e-04 4.17867901e-04 -9.91441682e-04
-8.59734975e-04 4.66091421e-04 -1.04724957e-03
-9.02479348e-04 6.24162656e-04 -1.02887273e-03
-7.30085466e-04 2.96737424e-04 -1.09553937e-03
-7.78871060e-04 4.41068287e-04 -1.10473484e-03
-6.50956920e-04 5.09895319e-04 -1.19278234e-03
-4.77496057e-04 3.48498711e-04 -1.24100006e-03
-6.08934945e-04 3.45882641e-04 -1.18325010e-03
-3.31078179e-04 3.76090075e-04 -1.30141711e-03
-1.70174878e-04 2.83628118e-04 -1.30767049e-03
-1.16931525e-05 4.68052329e-04 -1.36068008e-03
7.61655381e-05 2.41043013e-04 -1.30608998e-03
2.05978461e-04 3.77184054e-04 -1.33239684e-03
3.78572606e-04 3.56001288e-04 -1.28116275e-03
2.93527894e-04 2.19651569e-04 -1.26285407e-03
4.56156142e-04 3.47318016e-04 -1.24667762e-03
5.45627079e-04 3.63564516e-04 -1.21182471e-03
5.04562240e-04 2.92755701e-04 -1.20505747e-03
6.63420817e-04 3.09561911e-04 -1.13055774e-03
7.61180734e-04 2.02490313e-04 -1.02023278e-03
7.81468331e-04 1.39459113e-04 -9.53939082e-04
-1.02904699e-03 4.94236010e-04 -8.85877845e-04
-9.33255910e-04 4.97646498e-04 -9.89116512e-04
-8.88291712e-04 5.45289564e-04 -1.03682742e-03
-7.47384044e-04 5.33934382e-04 -1.14117949e-03
-5.85609134e-04 5.55324537e-04 -1.22815315e-03
-5.48982082e-04 3.91605127e-04 -1.21902841e-03
-4.82670409e-04 4.35440993e-04 -1.25539178e-03
-2.58516077e-04 2.82569263e-04 -1.29146644e-03
-1.75031124e-04 3.69853252e-04 -1.33482883e-03
-9.11729267e-05 2.52038961e-04 -1.30671490e-03
6.96944768e-05 4.87930595e-04 -1.35929570e-03
-1.01970927e-05 1.23337320e-04 -1.23038925e-03
5.39525547e-05 3.15963124e-04 -1.33060297e-03
1.28624941e-04 3.54488701e-04 -1.33607059e-03
2.52973809e-04 4.36905416e-04 -1.33308169e-03
4.01264727e-04 2.81532784e-04 -1.24640910e-03
4.71722546e-04 5.00986120e-04 -1.27185573e-03
7.10669345e-04 3.68527220e-04 -1.12175820e-03
7.29584011e-04 2.85863223e-04 -1.07838058e-03
7.97306394e-04 2.77050649e-04 -1.02904211e-03
8.65286448e-04 2.80202047e-04 -9.73011025e-04
-1.06342798e-03 5.67870867e-04 -8.54364844e-04
-8.48518397e-04 6.73598127e-04 -1.07290734e-03
-8.11580373e-04 5.16127334e-04 -1.09359426e-03
-6.29936774e-04 6.21163406e-04 -1.21686016e-03
-4.42450122e-04 5.63460251e-04 -1.28908820e-03
-5.03129529e-04 5.15022807e-04 -1.25872980e-03
-2.51412759e-04 3.56563562e-04 -1.31889996e-03
-1.67759574e-04 4.47938478e-04 -1.35454071e-03
-8.76356333e-05 4.17895468e-04 -1.35253730e-03
-3.61275229e-05 5.50026469e-04 -1.36864923e-03
4.41451204e-05 5.67852612e-04 -1.36761770e-03
-1.33398019e-05 3.81309423e-04 -1.34906697e-03
1.36421929e-04 5.41124209e-04 -1.35806048e-03
2.85775647e-04 5.92221604e-04 -1.34406134e-03
1.54975211e-04 4.50963080e-04 -1.34518432e-03
3.37065355e-04 4.41948565e-04 -1.31088344e-03
4.19548287e-04 4.28974697e-04 -1.28086553e-03
6.20293004e-04 3.71584500e-04 -1.17459219e-03
7.76713512e-04 3.56958716e-04 -1.07287612e-03
8.41868276e-04 3.49987379e-04 -1.02123370e-03
8.14750421e-04 4.31366372e-04 -1.06358241e-03
-1.06189739e-03 6.55985242e-04 -8.52744954e-04
-9.53737493e-04 5.89435539e-04 -9.80484869e-04
-7.84477672e-04 6.95543294e-04 -1.11735371e-03
-8.36063087e-04 5.93486151e-04 -1.08337493e-03
-5.21827501e-04 6.00159431e-04 -1.26293305e-03
-3.59982694e-04 5.37849994e-04 -1.31820633e-03
-3.29886886e-04 4.53437685e-04 -1.31610615e-03
-2.49767451e-04 4.37747873e-04 -1.33536662e-03
-1.04080249e-04 5.01449633e-04 -1.36445519e-03
-1.41103401e-04 5.73785701e-04 -1.36853501e-03
-6.87132933e-05 6.21932148e-04 -1.37512290e-03
6.42935265e-05 4.06236354e-04 -1.34907616e-03
2.22482188e-04 5.10176781e-04 -1.34726699e-03
3.08231261e-04 5.14961139e-04 -1.32979452e-03
1.49844748e-04 2.82762657e-04 -1.31259835e-03
3.50778427e-04 6.68065779e-04 -1.32797659e-03
3.93264854e-04 5.08689062e-04 -1.30262720e-03
5.00895952e-04 4.24056296e-04 -1.24637461e-03
6.71303009e-04 4.36863248e-04 -1.15978337e-03
7.47949804e-04 4.41678171e-04 -1.11504987e-03
9.17712370e-04 5.09446208e-04 -9.92403918e-04
-1.01901248e-03 6.08073114e-04 -9.09645645e-04
-9.89679174e-04 5.34691082e-04 -9.38645021e-04
-8.60188323e-04 7.46839569e-04 -1.05178671e-03
-7.11706983e-04 6.59340135e-04 -1.16745405e-03
-5.68474912e-04 6.64264251e-04 -1.24659738e-03
-3.89726880e-04 6.20132739e-04 -1.31535710e-03
-2.83864180e-04 5.22623044e-04 -1.34206872e-03
-2.05287597e-04 5.20141745e-04 -1.35949755e-03
-2.29587863e-04 6.01016558e-04 -1.35859327e-03
-1.60680873e-04 6.52465898e-04 -1.36738790e-03
1.10266951e-05 6.46096923e-04 -1.37574547e-03
1.04753785e-04 6.23667911e-04 -1.37018296e-03
2.07242712e-04 5.88009308e-04 -1.35932183e-03
1.83439326e-04 6.58297466e-04 -1.36809957e-03
2.67538331e-04 6.74560137e-04 -1.35270880e-03
5.21492750e-04 5.82620826e-04 -1.25935813e-03
5.10713911e-04 6.60899282e-04 -1.26881211e-03
5.86874137e-04 4.42239151e-04 -1.20899848e-03
5.51144457e-04 5.04939182e-04 -1.23929923e-03
8.52193633e-04 5.06296445e-04 -1.05009152e-03
8.19185466e-04 5.89401092e-04 -1.08556214e-03
-1.06311362e-03 7.47073941e-04 -8.34217953e-04
-9.78092082e-04 6.65899781e-04 -9.53338507e-04
-9.20543096e-04 6.99376802e-04 -1.00614029e-03
-7.70096682e-04 6.11491174e-04 -1.12886644e-03
-4.68861951e-04 6.57561249e-04 -1.28834883e-03
-3.09369854e-04 6.11431921e-04 -1.34340645e-03
-3.27365130e-04 6.99981015e-04 -1.33703082e-03
-2.51493876e-04 6.82003615e-04 -1.35419855e-03
-1.85702222e-04 7.31464035e-04 -1.36179581e-03
-8.78171936e-05 6.98573064e-04 -1.37468865e-03
-1.21307512e-05 7.28570085e-04 -1.37779815e-03
7.25501216e-05 6.99508396e-04 -1.37741162e-03
1.48557124e-04 7.31919938e-04 -1.37512382e-03
2.27188966e-04 7.48240339e-04 -1.35931243e-03
3.14150876e-04 7.43260152e-04 -1.33917523e-03
4.46266736e-04 5.83302771e-04 -1.29114181e-03
4.32854115e-04 6.64158713e-04 -1.29978546e-03
5.86626986e-04 6.59722111e-04 -1.23273014e-03
6.34106855e-04 5.08294304e-04 -1.19296968e-03
7.84116494e-04 5.16119106e-04 -1.10140056e-03
8.51334504e-04 7.37200165e-04 -1.06024991e-03
-1.02180342e-03 7.11661616e-04 -8.98547379e-04
-9.67019767e-04 7.55341775e-04 -9.51447051e-04
-9.09263931e-04 7.89693804e-04 -1.00095651e-03
-5.92197755e-04 7.48603873e-04 -1.23128535e-03
-5.14530862e-04 7.24487594e-04 -1.27217925e-03
-4.01124705e-04 7.00127090e-04 -1.31614899e-03
-3.65944231e-04 7.90299686e-04 -1.31746980e-03
-2.81084264e-04 7.69114430e-04 -1.34185599e-03
-2.07384607e-04 8.09435408e-04 -1.34899241e-03
-1.15236320e-04 7.72581356e-04 -1.36587910e-03
-4.12937860e-05 8.06813099e-04 -1.36651036e-03
5.59064550e-05 7.80539714e-04 -1.37522077e-03
1.32580079e-04 8.10954298e-04 -1.36785635e-03
2.12459836e-04 8.25241988e-04 -1.35520769e-03
2.93836175e-04 8.22073842e-04 -1.33836461e-03
3.99367938e-04 7.42462670e-04 -1.31010490e-03
4.20464509e-04 8.89295898e-04 -1.27704085e-03
4.81909319e-04 7.39712269e-04 -1.27826504e-03
5.98049638e-04 5.80549139e-04 -1.22163544e-03
7.11005204e-04 5.15364701e-04 -1.14967226e-03
7.97214522e-04 6.68162981e-04 -1.10362676e-03
-1.01310628e-03 7.98191559e-04 -8.87689178e-04
-8.98967170e-04 8.71878250e-04 -9.84876152e-04
-7.95471777e-04 7.79732094e-04 -1.09671408e-03
-6.52951175e-04 7.03477136e-04 -1.20244705e-03
-5.97884365e-04 8.33603472e-04 -1.21224742e-03
-4.43365807e-04 7.60267736e-04 -1.29772448e-03
-4.51717302e-04 8.35232452e-04 -1.28145076e-03
-3.04188153e-04 8.47687202e-04 -1.32414402e-03
-2.30206101e-04 8.84374615e-04 -1.32930799e-03
-1.34251760e-04 8.51268403e-04 -1.35125868e-03
-6.15416144e-05 8.88717763e-04 -1.34957264e-03
2.62971181e-05 8.54416879e-04 -1.36208256e-03
1.02005764e-04 8.86037640e-04 -1.35447917e-03
1.81592366e-04 9.01716703e-04 -1.34305702e-03
2.63399202e-04 8.98129144e-04 -1.32653355e-03
3.72110558e-04 8.18703843e-04 -1.30986963e-03
4.97502750e-04 8.88758013e-04 -1.24217213e-03
4.55333445e-04 8.15386372e-04 -1.28096632e-03
6.58611867e-04 6.65647676e-04 -1.19457584e-03
7.47901090e-04 5.96741046e-04 -1.13412815e-03
8.24839245e-04 8.11281100e-04 -1.06723512e-03
-9.59425347e-04 8.39535493e-04 -9.37476061e-04
-8.78231153e-04 9.57434542e-04 -9.68977982e-04
[...]
POINT_DATA 20213
SCALARS pressure double 1
LOOKUP_TABLE default
0.00000000e+00
0.00000000e+00
0.00000000e+00
0.00000000e+00
8.81853119e+02
1.00753859e+03
9.91818378e+02
1.01417227e+03
7.14183509e+02
1.11499112e+03
5.65660069e+02
7.07336567e+02
5.28361996e+02
0.00000000e+00
0.00000000e+00
7.03710594e+02
7.48733823e+02
0.00000000e+00
9.98235127e+02
1.14800130e+03
1.14375368e+03
0.00000000e+00
0.00000000e+00
0.00000000e+00
0.00000000e+00
9.86737680e+02
0.00000000e+00
1.00164574e+03
9.65245420e+02
0.00000000e+00
0.00000000e+00
0.00000000e+00
0.00000000e+00
0.00000000e+00
0.00000000e+00
0.00000000e+00
5.58042805e+02
6.91747864e+02
6.52673909e+02
0.00000000e+00
7.43585026e+02
0.00000000e+00
0.00000000e+00
5.82983443e+02
9.09567808e+02
7.63684614e+02
0.00000000e+00
9.62279958e+02
0.00000000e+00
0.00000000e+00
0.00000000e+00
0.00000000e+00
0.00000000e+00
0.00000000e+00
0.00000000e+00
0.00000000e+00
0.00000000e+00
0.00000000e+00
0.00000000e+00
0.00000000e+00
9.12440207e+02
7.37015545e+02
0.00000000e+00
8.30592321e+02
0.00000000e+00
0.00000000e+00
8.90552117e+02
9.77439388e+02
1.09332590e+03
9.70536397e+02
0.00000000e+00
5.61075648e+02
0.00000000e+00
0.00000000e+00
0.00000000e+00
0.00000000e+00
0.00000000e+00
0.00000000e+00
0.00000000e+00
0.00000000e+00
1.09631598e+03
9.53057993e+02
0.00000000e+00
0.00000000e+00
1.29991944e+03
0.00000000e+00
0.00000000e+00
0.00000000e+00
0.00000000e+00
0.00000000e+00
0.00000000e+00
0.00000000e+00
0.00000000e+00
0.00000000e+00
0.00000000e+00
0.00000000e+00
0.00000000e+00
9.33683307e+02
0.00000000e+00
0.00000000e+00
0.00000000e+00
0.00000000e+00
1.06055267e+03
1.00927343e+03
1.14462029e+03
1.46564056e+03
9.16984634e+02
0.00000000e+00
0.00000000e+00
0.00000000e+00
0.00000000e+00
9.42789080e+02
7.41295992e+02
0.00000000e+00
0.00000000e+00
0.00000000e+00
0.00000000e+00
0.00000000e+00
7.35195506e+02
0.00000000e+00
9.11171212e+02
6.89917751e+02
0.00000000e+00
8.67383969e+02
1.11228597e+03
0.00000000e+00
1.13639906e+03
0.00000000e+00
9.84762978e+02
8.93959293e+02
0.00000000e+00
6.67065132e+02
0.00000000e+00
0.00000000e+00
0.00000000e+00
0.00000000e+00
4.81987392e+02
0.00000000e+00
8.36847134e+02
0.00000000e+00
9.61518520e+02
0.00000000e+00
0.00000000e+00
0.00000000e+00
0.00000000e+00
1.21982288e+03
1.23683127e+03
1.36059894e+03
9.79192335e+02
0.00000000e+00
9.02534887e+02
0.00000000e+00
0.00000000e+00
7.58313369e+02
6.49037915e+02
6.29036357e+02
0.00000000e+00
0.00000000e+00
0.00000000e+00
0.00000000e+00
0.00000000e+00
0.00000000e+00
0.00000000e+00
7.98090473e+02
0.00000000e+00
0.00000000e+00
1.05728948e+03
7.85354588e+02
0.00000000e+00
9.88530076e+02
1.12056178e+03
0.00000000e+00
0.00000000e+00
0.00000000e+00
7.93436552e+02
8.39617468e+02
0.00000000e+00
0.00000000e+00
0.00000000e+00
0.00000000e+00
0.00000000e+00
0.00000000e+00
0.00000000e+00
8.55830542e+02
0.00000000e+00
9.27596199e+02
0.00000000e+00
0.00000000e+00
1.13898757e+03
0.00000000e+00
1.08608500e+03
0.00000000e+00
0.00000000e+00
8.85056872e+02
0.00000000e+00
8.38594790e+02
6.80890326e+02
0.00000000e+00
0.00000000e+00
0.00000000e+00
0.00000000e+00
0.00000000e+00
0.00000000e+00
0.00000000e+00
8.73818500e+02
7.31403223e+02
0.00000000e+00
0.00000000e+00
1.10263192e+03
0.00000000e+00
0.00000000e+00
1.08851140e+03
0.00000000e+00
0.00000000e+00
7.83016406e+02
0.00000000e+00
7.54481680e+02
0.00000000e+00
0.00000000e+00
0.00000000e+00
1.09151295e+03
0.00000000e+00
5.15455408e+02
8.63674530e+02
9.08402350e+02
8.69598845e+02
7.85288527e+02
1.10406184e+03
1.05717647e+03
1.01963828e+03
1.05446458e+03
1.28105630e+03
1.12230688e+03
0.00000000e+00
0.00000000e+00
0.00000000e+00
0.00000000e+00
7.85866479e+02
0.00000000e+00
0.00000000e+00
9.76512792e+02
0.00000000e+00
7.93631367e+02
0.00000000e+00
9.33265379e+02
0.00000000e+00
0.00000000e+00
8.73256160e+02
0.00000000e+00
0.00000000e+00
0.00000000e+00
0.00000000e+00
1.00037604e+03
0.00000000e+00
0.00000000e+00
0.00000000e+00
0.00000000e+00
0.00000000e+00
8.68320528e+02
1.04750272e+03
1.25227016e+03
0.00000000e+00
0.00000000e+00
5.58252589e+02
0.00000000e+00
1.02264801e+03
8.49279967e+02
0.00000000e+00
0.00000000e+00
0.00000000e+00
0.00000000e+00
0.00000000e+00
0.00000000e+00
0.00000000e+00
8.92280479e+02
0.00000000e+00
0.00000000e+00
0.00000000e+00
0.00000000e+00
1.10603261e+03
1.50513646e+03
8.77073196e+02
0.00000000e+00
0.00000000e+00
0.00000000e+00
8.27080477e+02
9.29701805e+02
0.00000000e+00
6.30510150e+02
0.00000000e+00
5.78077467e+02
0.00000000e+00
0.00000000e+00
0.00000000e+00
0.00000000e+00
8.95342252e+02
7.47674389e+02
9.90526662e+02
0.00000000e+00
0.00000000e+00
1.38378225e+03
1.43863694e+03
1.24024560e+03
1.02574468e+03
0.00000000e+00
7.40914355e+02
0.00000000e+00
6.98640918e+02
7.19200878e+02
0.00000000e+00
5.56910232e+02
0.00000000e+00
0.00000000e+00
0.00000000e+00
0.00000000e+00
0.00000000e+00
0.00000000e+00
0.00000000e+00
0.00000000e+00
1.07329603e+03
1.31705847e+03
1.46313884e+03
1.58022239e+03
1.34264748e+03
0.00000000e+00
0.00000000e+00
0.00000000e+00
8.21364739e+02
0.00000000e+00
0.00000000e+00
0.00000000e+00
0.00000000e+00
5.92116749e+02
5.87301797e+02
0.00000000e+00
0.00000000e+00
9.35258961e+02
9.74150214e+02
1.07182666e+03
1.13716498e+03
1.31682130e+03
1.36072443e+03
0.00000000e+00
1.59830932e+03
1.29114869e+03
0.00000000e+00
0.00000000e+00
7.82980281e+02
1.01637211e+03
9.66467433e+02
0.00000000e+00
8.39112681e+02
8.29366360e+02
0.00000000e+00
0.00000000e+00
0.00000000e+00
4.22527604e+02
0.00000000e+00
1.22599335e+03
1.38219701e+03
1.31682779e+03
1.46391616e+03
1.28734179e+03
1.36144199e+03
0.00000000e+00
1.46617830e+03
1.35746017e+03
0.00000000e+00
0.00000000e+00
1.10146971e+03
1.14009196e+03
1.01402334e+03
0.00000000e+00
9.74412100e+02
0.00000000e+00
0.00000000e+00
0.00000000e+00
0.00000000e+00
8.78317419e+02
0.00000000e+00
1.09744126e+03
1.37014670e+03
1.39417278e+03
0.00000000e+00
1.25036392e+03
0.00000000e+00
0.00000000e+00
1.17648441e+03
9.95926186e+02
0.00000000e+00
1.18756436e+03
1.26066401e+03
1.16086643e+03
1.19928713e+03
9.33637795e+02
0.00000000e+00
0.00000000e+00
0.00000000e+00
0.00000000e+00
0.00000000e+00
0.00000000e+00
0.00000000e+00
1.16381664e+03
1.15576459e+03
1.00272610e+03
0.00000000e+00
0.00000000e+00
0.00000000e+00
6.85098616e+02
0.00000000e+00
9.84360777e+02
1.28075235e+03
0.00000000e+00
1.37855097e+03
1.43364636e+03
1.21103656e+03
1.22975411e+03
0.00000000e+00
7.18282856e+02
0.00000000e+00
0.00000000e+00
8.72161568e+02
1.08562331e+03
1.12074284e+03
9.75964766e+02
0.00000000e+00
0.00000000e+00
0.00000000e+00
0.00000000e+00
0.00000000e+00
9.85753292e+02
1.05183450e+03
1.23956350e+03
1.33822089e+03
1.43993965e+03
1.55246020e+03
1.38928368e+03
1.15592610e+03
0.00000000e+00
0.00000000e+00
0.00000000e+00
0.00000000e+00
0.00000000e+00
0.00000000e+00
0.00000000e+00
7.86387767e+02
0.00000000e+00
0.00000000e+00
8.80109430e+02
8.59409821e+02
1.20780535e+03
1.37768125e+03
1.07462575e+03
0.00000000e+00
1.04430070e+03
1.07383323e+03
1.42788540e+03
0.00000000e+00
1.18768379e+03
9.46791695e+02
1.00809116e+03
1.03378315e+03
0.00000000e+00
2.34103763e+03
1.20559185e+03
1.55368668e+03
1.02880100e+03
1.34309889e+03
1.23031198e+03
1.14450309e+03
9.43921899e+02
1.46871013e+03
2.35828882e+03
2.11258576e+03
1.08285589e+03
2.27772218e+03
1.98271705e+03
1.24292314e+03
1.18272661e+03
8.68427636e+02
1.27256859e+03
1.08522520e+03
1.08506933e+03
0.00000000e+00
1.38440320e+03
1.32779236e+03
1.40535714e+03
1.01753777e+03
2.34154540e+03
1.40772377e+03
0.00000000e+00
0.00000000e+00
5.68498217e+02
0.00000000e+00
0.00000000e+00
0.00000000e+00
0.00000000e+00
2.15108389e+03
9.06182818e+02
1.47344341e+03
7.61718621e+02
1.28363167e+03
1.14709824e+03
0.00000000e+00
9.96430772e+02
1.27770969e+03
1.91013087e+03
2.33276290e+03
2.26276326e+03
2.51842025e+03
1.04952146e+03
1.13695596e+03
9.24792355e+02
2.42085454e+03
1.14775441e+03
1.33750548e+03
1.19253788e+03
1.20135396e+03
1.01935400e+03
1.02109594e+03
1.36381724e+03
2.02659583e+03
1.26402663e+03
1.36546079e+03
9.51500042e+02
1.06498521e+03
1.30651933e+03
1.17407667e+03
1.20623259e+03
2.07153382e+03
1.68585880e+03
1.79316441e+03
8.64631666e+02
7.40843145e+02
1.56875206e+03
1.69641431e+03
2.48863048e+03
1.04602475e+03
2.54415007e+03
1.95926147e+03
1.81240827e+03
1.41993839e+03
1.25527317e+03
1.39989854e+03
9.59317468e+02
0.00000000e+00
0.00000000e+00
2.23238626e+03
1.06274865e+03
1.05262343e+03
2.26706342e+03
0.00000000e+00
1.83001881e+03
1.41634818e+03
1.15342500e+03
8.44212412e+02
2.02816596e+03
8.85502103e+02
1.63957307e+03
1.15948339e+03
1.32418710e+03
0.00000000e+00
2.09040500e+03
1.15420279e+03
7.93790253e+02
1.35825926e+03
0.00000000e+00
1.22856701e+03
1.43224605e+03
1.28638798e+03
1.22374328e+03
1.53300660e+03
9.81508215e+02
1.38140920e+03
1.54515749e+03
1.12746519e+03
2.38484859e+03
8.76127838e+02
1.65005617e+03
2.43068933e+03
1.21442241e+03
1.00101568e+03
1.47306273e+03
1.13127091e+03
8.21703656e+02
8.84762212e+02
8.38581641e+02
1.00065347e+03
1.52997694e+03
1.08156726e+03
1.00950156e+03
1.37813365e+03
1.37787185e+03
1.54096211e+03
1.40906153e+03
1.89550121e+03
1.55107445e+03
1.50385839e+03
1.30393193e+03
1.21547316e+03
2.46959837e+03
1.30627244e+03
1.51074283e+03
1.90116125e+03
8.17254626e+02
7.29486266e+02
0.00000000e+00
7.63310899e+02
8.97522608e+02
1.58839523e+03
1.72587368e+03
0.00000000e+00
2.09010986e+03
2.37146701e+03
1.50002923e+03
1.36588612e+03
1.53400051e+03
1.51632476e+03
2.51000457e+03
1.36431560e+03
2.24293081e+03
2.54750697e+03
1.31705270e+03
1.01824876e+03
8.61973230e+02
2.11269660e+03
1.84896098e+03
1.05492127e+03
1.00861435e+03
0.00000000e+00
1.54099777e+03
1.69843819e+03
0.00000000e+00
1.21723467e+03
1.16741799e+03
1.55538272e+03
1.51419003e+03
1.38317064e+03
1.61154287e+03
1.39037692e+03
1.24710908e+03
8.62518540e+02
2.18168497e+03
1.06745140e+03
9.69844884e+02
1.08374645e+03
8.04410925e+02
1.02912631e+03
1.04454331e+03
6.71433668e+02
0.00000000e+00
1.27669596e+03
1.45759581e+03
8.05828451e+02
1.50467740e+03
1.34193843e+03
1.49301323e+03
1.43518325e+03
1.50865838e+03
1.57204396e+03
1.54149218e+03
1.38429926e+03
2.02292310e+03
2.53598857e+03
2.04751896e+03
1.06273456e+03
9.18774635e+02
1.60724192e+03
2.18398359e+03
1.03712012e+03
1.17838327e+03
0.00000000e+00
1.16387544e+03
1.33712906e+03
0.00000000e+00
1.35135417e+03
1.21311580e+03
1.49207502e+03
1.48767336e+03
1.20519174e+03
2.28674212e+03
1.45821857e+03
2.15504196e+03
1.65143370e+03
1.66581668e+03
1.23451533e+03
1.55260066e+03
1.04938774e+03
7.94704855e+02
7.53271345e+02
8.02491702e+02
4.37979451e+02
0.00000000e+00
0.00000000e+00
1.67302638e+03
1.09909475e+03
1.32893952e+03
1.74227181e+03
1.38439916e+03
1.23650774e+03
1.56102113e+03
2.56682731e+03
1.39597931e+03
1.46199411e+03
2.31552231e+03
2.61670529e+03
2.29034905e+03
1.22612212e+03
1.28266967e+03
1.31355863e+03
1.83780816e+03
0.00000000e+00
1.51843893e+03
0.00000000e+00
0.00000000e+00
1.12203363e+03
9.12562483e+02
1.49614399e+03
1.49365644e+03
1.41523590e+03
1.37838780e+03
1.44464647e+03
1.70575151e+03
1.24231167e+03
1.17757686e+03
1.17053216e+03
1.40459973e+03
8.96601297e+02
1.17795314e+03
9.91577841e+02
1.16524828e+03
1.27941125e+03
0.00000000e+00
6.40334107e+02
7.56915141e+02
0.00000000e+00
1.07346367e+03
1.09086489e+03
1.34525129e+03
1.46605073e+03
1.41145799e+03
1.68520298e+03
2.13747828e+03
1.47669871e+03
1.10044361e+03
1.91966502e+03
1.23861233e+03
1.19263132e+03
1.07103181e+03
1.35606510e+03
1.49277470e+03
1.97913108e+03
1.28775918e+03
1.22643472e+03
7.50343409e+02
0.00000000e+00
8.95235940e+02
1.19646726e+03
1.34155736e+03
1.24149867e+03
1.21785628e+03
0.00000000e+00
1.23645643e+03
7.85470446e+02
1.24921542e+03
1.05651523e+03
1.19500806e+03
1.63134068e+03
1.48672974e+03
1.32573453e+03
1.44256653e+03
6.98709013e+02
1.65534331e+03
1.33270366e+03
1.60898646e+03
1.02357929e+03
0.00000000e+00
0.00000000e+00
1.27202057e+03
1.55576384e+03
1.23700925e+03
2.12394207e+03
8.36297434e+02
1.17938669e+03
9.58851773e+02
1.52882867e+03
8.31936410e+02
1.46215512e+03
1.34262825e+03
1.67869843e+03
1.58462721e+03
1.95594938e+03
1.42551848e+03
2.25929386e+03
1.40496211e+03
1.90312937e+03
1.34312192e+03
0.00000000e+00
7.99134907e+02
1.05836135e+03
1.13619468e+03
1.30453918e+03
1.06102387e+03
1.63971779e+03
1.20936647e+03
7.90814317e+02
1.62199217e+03
1.15782689e+03
1.38662756e+03
1.35046765e+03
2.02265371e+03
1.72166570e+03
1.57945693e+03
1.51993489e+03
1.58847707e+03
1.63768649e+03
1.50946737e+03
1.52614576e+03
0.00000000e+00
8.75177707e+02
1.10106679e+03
9.65467355e+02
1.00192196e+03
1.61289784e+03
1.27147051e+03
8.90971485e+02
9.08344426e+02
9.07580342e+02
1.06054088e+03
0.00000000e+00
0.00000000e+00
1.12562104e+03
1.24347070e+03
1.60377972e+03
1.61990933e+03
1.51455176e+03
1.53013039e+03
1.44684711e+03
1.64851113e+03
0.00000000e+00
0.00000000e+00
1.69401409e+03
8.32581067e+02
1.37846830e+03
9.62263510e+02
1.17289320e+03
8.84154085e+02
9.78100408e+02
1.40937208e+03
1.24746435e+03
1.60331320e+03
1.49494625e+03
1.87380729e+03
1.41582107e+03
1.43511050e+03
1.54108082e+03
1.40842795e+03
1.61777326e+03
1.55210236e+03
1.95870036e+03
0.00000000e+00
0.00000000e+00
8.79041112e+02
1.04034912e+03
9.49221760e+02
8.31562479e+02
0.00000000e+00
0.00000000e+00
0.00000000e+00
0.00000000e+00
9.88072362e+02
0.00000000e+00
0.00000000e+00
1.33940839e+03
0.00000000e+00
1.50622276e+03
1.49563099e+03
1.47549269e+03
1.37717070e+03
1.18570263e+03
9.04582599e+02
0.00000000e+00
8.73693981e+02
0.00000000e+00
0.00000000e+00
5.84101166e+02
1.15015914e+03
8.05550050e+02
8.45733188e+02
9.49718900e+02
9.62657091e+02
9.69214202e+02
1.00900310e+03
1.13506068e+03
1.03763141e+03
4.53576271e+02
1.06605684e+03
0.00000000e+00
9.74465730e+02
1.16680125e+03
1.26042490e+03
1.24064914e+03
0.00000000e+00
0.00000000e+00
1.14891615e+03
1.48346817e+03
1.35045507e+03
1.93070230e+03
1.22392908e+03
9.57684183e+02
9.64344690e+02
1.76093874e+03
8.61157075e+02
7.41998024e+02
1.09871286e+03
8.93037315e+02
0.00000000e+00
9.88169591e+02
1.17659880e+03
1.75410263e+03
1.33032569e+03
1.12929676e+03
9.56568387e+02
1.45532804e+03
0.00000000e+00
1.49300283e+03
1.89275764e+03
1.60494682e+03
2.45341567e+03
1.37163792e+03
2.03426838e+03
1.22726128e+03
2.12607795e+03
1.14081956e+03
2.37847629e+03
2.34325996e+03
2.39926954e+03
1.63141262e+03
1.46923241e+03
1.72066238e+03
2.35995503e+03
1.36246442e+03
1.87694029e+03
1.05450027e+03
0.00000000e+00
0.00000000e+00
1.09664239e+03
1.42164494e+03
1.03285019e+03
1.62919470e+03
8.76339700e+02
1.63072538e+03
9.77927525e+02
2.21740874e+03
8.84753462e+02
7.22092937e+02
1.55599420e+03
1.30309697e+03
2.53565227e+03
2.24171648e+03
1.67905742e+03
2.25845509e+03
1.41920508e+03
2.09590525e+03
2.39404037e+03
1.14825186e+03
1.08625601e+03
1.20866714e+03
2.38511231e+03
1.58697019e+03
2.13076024e+03
2.13564115e+03
9.92891044e+02
1.62956611e+03
9.27574047e+02
1.73678279e+03
1.18426764e+03
2.40595423e+03
2.04256384e+03
1.10557946e+03
2.50970902e+03
1.10938534e+03
1.75460050e+03
2.44648302e+03
1.68167913e+03
2.10308138e+03
1.16220368e+03
1.07673353e+03
1.43808519e+03
2.55962568e+03
1.46307779e+03
1.72178722e+03
1.70816497e+03
1.22439265e+03
1.22752950e+03
2.15714471e+03
1.80274174e+03
1.64401648e+03
1.67011997e+03
2.43584844e+03
1.65318392e+03
1.71199972e+03
2.22771908e+03
1.68250586e+03
2.47186083e+03
2.26526454e+03
1.84275402e+03
0.00000000e+00
0.00000000e+00
1.56052396e+03
2.61876608e+03
1.70955491e+03
1.94817977e+03
1.09131195e+03
1.19342854e+03
1.57590079e+03
1.93280479e+03
2.01227086e+03
1.39068066e+03
1.09833914e+03
2.28213916e+03
9.61742336e+02
1.51622405e+03
2.55371591e+03
1.76065413e+03
1.68425872e+03
2.45274216e+03
1.10208410e+03
0.00000000e+00
0.00000000e+00
1.47067686e+03
2.03477425e+03
1.95085923e+03
1.70851595e+03
1.60245231e+03
1.36024080e+03
2.58512617e+03
1.10402049e+03
1.13425619e+03
1.99744003e+03
1.12727278e+03
1.26097836e+03
2.11438938e+03
1.98185045e+03
1.20105041e+03
1.93647565e+03
2.16088738e+03
1.73165208e+03
0.00000000e+00
0.00000000e+00
1.34598933e+03
1.60652940e+03
2.33497010e+03
1.29752060e+03
1.74245072e+03
9.50863186e+02
2.25665236e+03
1.43092199e+03
1.77392343e+03
1.43333199e+03
1.36761369e+03
1.98341791e+03
2.57682945e+03
2.56279762e+03
2.36276072e+03
1.22077099e+03
2.44802546e+03
1.41916064e+03
2.57454588e+03
0.00000000e+00
1.08764769e+03
1.62640076e+03
1.57172038e+03
1.86082743e+03
1.06776139e+03
2.11278232e+03
2.20441636e+03
1.77851474e+03
2.44164388e+03
8.88112135e+02
1.66748910e+03
1.40431345e+03
2.50946415e+03
1.61198392e+03
2.51006790e+03
1.61873382e+03
2.51648432e+03
9.37662772e+02
1.14627427e+03
2.32693383e+03
1.01469396e+03
1.14247934e+03
1.37739712e+03
1.53214340e+03
1.55725531e+03
1.15187687e+03
1.91262743e+03
1.44135846e+03
1.52256460e+03
1.54445113e+03
2.48294474e+03
2.46348799e+03
1.24121163e+03
2.39220607e+03
1.18344458e+03
2.25233360e+03
1.80170544e+03
1.42144742e+03
1.87931738e+03
6.31575976e+02
2.43146208e+03
0.00000000e+00
1.03980905e+03
1.32330157e+03
1.49920122e+03
2.46962930e+03
1.39395182e+03
1.53159164e+03
2.35963316e+03
1.51129715e+03
1.11745450e+03
2.28501201e+03
2.50923084e+03
1.56103091e+03
1.69181261e+03
1.19425795e+03
2.60791187e+03
1.32971748e+03
1.52341056e+03
1.09551782e+03
1.08745563e+03
2.09048883e+03
0.00000000e+00
0.00000000e+00
0.00000000e+00
1.16511320e+03
2.62903234e+03
1.14419138e+03
2.55311575e+03
2.53801907e+03
2.34981974e+03
1.87448745e+03
2.59981565e+03
1.97777704e+03
1.53453697e+03
2.13457306e+03
1.39576777e+03
2.02453635e+03
2.53452617e+03
2.22816538e+03
2.39132763e+03
1.00598109e+03
2.41030338e+03
0.00000000e+00
8.84530193e+02
1.17765745e+03
0.00000000e+00
2.27442888e+03
1.35278928e+03
2.41644924e+03
1.50570071e+03
1.55475743e+03
2.43706807e+03
1.63635906e+03
1.68001855e+03
1.33670770e+03
2.26951836e+03
2.49011717e+03
1.89471064e+03
1.39686435e+03
1.47461852e+03
2.16344205e+03
1.51204528e+03
1.08722147e+03
0.00000000e+00
0.00000000e+00
1.27206237e+03
1.46521711e+03
1.42913154e+03
1.53179241e+03
1.95572502e+03
1.73785114e+03
1.62550407e+03
9.85826642e+02
2.01819107e+03
1.49029552e+03
1.68455201e+03
1.66269916e+03
2.62649916e+03
1.34069807e+03
2.01328713e+03
2.32716706e+03
1.47504556e+03
1.59822466e+03
1.91531012e+03
7.73593737e+02
9.21227669e+02
0.00000000e+00
1.09889204e+03
2.09145362e+03
1.82609955e+03
2.61866954e+03
2.28582307e+03
1.97840588e+03
1.35271478e+03
2.40975917e+03
1.92402559e+03
1.46542128e+03
2.61890127e+03
2.33144149e+03
1.58974025e+03
1.71220028e+03
2.51436001e+03
2.60264324e+03
1.83205747e+03
1.25924047e+03
1.04903062e+03
0.00000000e+00
1.11153794e+03
1.61900314e+03
2.51962063e+03
2.05082147e+03
2.59041610e+03
2.74160537e+03
2.54805333e+03
1.19985229e+03
1.82968828e+03
2.14223733e+03
2.69682415e+03
1.59624655e+03
2.68610366e+03
1.44002889e+03
2.55800198e+03
2.61572243e+03
2.58429576e+03
1.96617841e+03
2.72005545e+03
1.22617560e+03
0.00000000e+00
0.00000000e+00
9.11494338e+02
1.31720176e+03
1.18328370e+03
2.62990196e+03
2.01049424e+03
1.92831329e+03
1.90192609e+03
7.97419337e+02
1.11971616e+03
1.00993365e+03
1.51218687e+03
1.57045533e+03
1.56257434e+03
1.69634603e+03
1.96415992e+03
2.20931546e+03
1.90686481e+03
1.50128885e+03
1.45383535e+03
0.00000000e+00
0.00000000e+00
1.01614169e+03
1.87185355e+03
1.92123210e+03
1.47585700e+03
2.57295515e+03
1.24557541e+03
1.94463230e+03
2.72172212e+03
2.51105758e+03
2.63474353e+03
2.28584151e+03
2.64724166e+03
1.51019065e+03
1.60404938e+03
1.84995517e+03
2.19145579e+03
2.29137865e+03
2.71663661e+03
1.39377086e+03
0.00000000e+00
0.00000000e+00
1.04916042e+03
9.38116659e+02
1.44160236e+03
1.78726688e+03
1.50225641e+03
1.24536949e+03
1.18840764e+03
1.18931754e+03
1.30920022e+03
1.23112250e+03
1.20532937e+03
1.27922100e+03
0.00000000e+00
1.56844002e+03
1.20911795e+03
1.64903412e+03
1.33572479e+03
2.02588054e+03
1.29251450e+03
0.00000000e+00
0.00000000e+00
7.29889756e+02
9.22597103e+02
8.98984622e+02
0.00000000e+00
0.00000000e+00
0.00000000e+00
0.00000000e+00
0.00000000e+00
0.00000000e+00
1.21461035e+03
0.00000000e+00
1.22732425e+03
1.36865259e+03
1.41030426e+03
1.56156919e+03
1.41819977e+03
0.00000000e+00
1.17418611e+03
8.65775901e+02
0.00000000e+00
7.40866151e+02
1.27719470e+03
0.00000000e+00
1.70141028e+03
1.17065270e+03
1.25339578e+03