# vtk DataFile Version 3.0
MPS 3D Simulation Step 6000
ASCII
DATASET UNSTRUCTURED_GRID
POINTS 20213 double
-1.08140943e-03 3.71163052e-04 -8.64976189e-04
-9.82705840e-04 2.30266968e-04 -8.95989369e-04
-8.54878568e-04 3.22557082e-04 -1.07347186e-03
-8.23857926e-04 3.79030449e-04 -1.12130440e-03
-7.74498657e-04 1.80891196e-04 -1.07121865e-03
-7.61408240e-04 4.05610709e-04 -1.16914279e-03
-6.16209227e-04 2.14115199e-04 -1.18721582e-03
-4.78105235e-04 2.62739066e-04 -1.26560643e-03
-3.84012346e-04 1.24220075e-04 -1.22211755e-03
-3.17896386e-04 7.85297732e-04 -1.13311571e-03
-1.34110767e-04 7.95505049e-04 -1.25734559e-03
-2.15704115e-04 7.27572064e-04 -1.26924956e-03
-1.30236175e-04 5.15154658e-04 -1.25309898e-03
-6.45954186e-06 1.94800851e-04 -1.31788570e-03
6.40087726e-05 1.48675252e-04 -1.28537906e-03
5.06408889e-04 1.50023814e-04 -1.18314457e-03
3.00722704e-04 6.14643299e-04 -9.47083492e-04
5.79697098e-04 1.36007248e-04 -1.13866283e-03
6.15741497e-04 4.58425855e-04 -1.01910844e-03
8.33413788e-04 6.21322804e-04 -9.00867433e-04
1.01917915e-03 3.65749045e-04 -7.69418324e-04
-1.03623067e-03 2.97898149e-04 -8.82262574e-04
-9.63416266e-04 2.87221847e-04 -9.51855717e-04
-9.33121170e-04 3.43518789e-04 -1.01066411e-03
-8.53567857e-04 4.55423989e-04 -1.11540017e-03
-7.91406648e-04 5.69386534e-04 -1.17799288e-03
-9.08926876e-04 5.08540472e-04 -1.08245012e-03
-7.09513898e-04 4.54182167e-04 -1.20942399e-03
-4.98604298e-04 3.97221175e-04 -1.29719826e-03
-3.53494664e-04 1.86346128e-04 -1.27027340e-03
-2.87283633e-04 1.21903525e-04 -1.24605361e-03
-2.92124107e-08 2.68298473e-04 -1.34533995e-03
1.40519383e-04 1.90208654e-04 -1.30342191e-03
2.38418196e-04 3.13544681e-04 -1.33719507e-03
3.14518295e-04 3.33967278e-04 -1.32992309e-03
3.18409432e-04 2.57142932e-04 -1.30116713e-03
4.38324886e-04 1.70285216e-04 -1.22223897e-03
4.81371926e-04 2.29595257e-04 -1.24258914e-03
5.34544785e-04 4.83058182e-04 -1.17381556e-03
5.53736799e-04 2.10656770e-04 -1.20638611e-03
6.96803725e-04 2.15965601e-04 -1.13965212e-03
8.52239325e-04 1.26089780e-04 -9.39679261e-04
-1.01523868e-03 3.51343436e-04 -9.33991631e-04
-9.83833640e-04 4.01280074e-04 -9.85394919e-04
-1.00104979e-03 6.11609822e-04 -1.00304287e-03
-7.71112975e-04 3.10972083e-04 -1.13267497e-03
-8.96773832e-04 3.97248426e-04 -1.06666528e-03
-7.92510113e-04 4.86073161e-04 -1.16498282e-03
-5.35379378e-04 3.26971609e-04 -1.26562862e-03
-6.19881200e-04 3.16336616e-04 -1.22396643e-03
-3.70820559e-04 3.56380896e-04 -1.32587106e-03
-2.95725655e-04 2.20872097e-04 -1.30118307e-03
-8.89251926e-05 3.98799744e-04 -1.37618335e-03
7.48419557e-05 2.29248782e-04 -1.32683017e-03
1.68466297e-04 4.43846125e-04 -1.37248487e-03
3.89288566e-04 3.16824422e-04 -1.30651497e-03
2.89014552e-04 1.83261360e-04 -1.27261950e-03
4.38976053e-04 3.85203981e-04 -1.30927124e-03
5.47419857e-04 2.89528157e-04 -1.24293882e-03
4.69306431e-04 3.05460966e-04 -1.27694963e-03
6.99722543e-04 2.91622510e-04 -1.17028380e-03
8.09663744e-04 2.10143794e-04 -1.05589753e-03
7.92242521e-04 1.39198559e-04 -1.01216912e-03
-1.11575875e-03 4.47120749e-04 -8.48707315e-04
-1.01522100e-03 4.78445591e-04 -9.73844947e-04
-9.74815772e-04 5.33950829e-04 -1.02367319e-03
-8.52883759e-04 5.44821218e-04 -1.13155908e-03
-7.26836812e-04 5.28559605e-04 -1.21346774e-03
-6.61103127e-04 3.88170841e-04 -1.22401793e-03
-5.84251906e-04 3.94585241e-04 -1.26113378e-03
-3.15927446e-04 2.98168344e-04 -1.32191306e-03
-2.36740225e-04 3.36802477e-04 -1.34954188e-03
-2.34056838e-04 1.72246318e-04 -1.29063206e-03
-1.47222086e-05 4.21891885e-04 -1.38199241e-03
-1.00710809e-04 1.57647105e-04 -1.30051362e-03
1.84546750e-05 3.47782232e-04 -1.36689240e-03
9.03247460e-05 3.09222189e-04 -1.35351475e-03
2.54335882e-04 4.00884728e-04 -1.35271088e-03
4.00399634e-04 2.40495031e-04 -1.27260210e-03
4.90823062e-04 4.56635020e-04 -1.30173571e-03
7.56127883e-04 3.45473092e-04 -1.15550223e-03
7.67697076e-04 2.66132393e-04 -1.11315546e-03
8.48393210e-04 2.78167500e-04 -1.05998056e-03
9.11420323e-04 2.65564679e-04 -1.00018637e-03
-1.14439711e-03 5.26149606e-04 -8.30130136e-04
-9.51506070e-04 6.62967630e-04 -1.04706164e-03
-9.44633071e-04 4.52820142e-04 -1.03710966e-03
-7.31980244e-04 6.15050634e-04 -1.21379499e-03
-5.88970687e-04 5.30511432e-04 -1.27957717e-03
-6.35720468e-04 4.69429413e-04 -1.24977776e-03
-2.98048900e-04 3.91056403e-04 -1.35117961e-03
-2.18488955e-04 4.26911633e-04 -1.36792799e-03
-1.60012625e-04 3.61162828e-04 -1.36459904e-03
-5.74417767e-05 4.98542471e-04 -1.38802598e-03
1.77244048e-05 5.41879799e-04 -1.39283577e-03
-1.44402576e-04 2.85286135e-04 -1.34447502e-03
4.82637602e-05 4.67006644e-04 -1.38583187e-03
2.83809999e-04 5.61329637e-04 -1.36791102e-03
9.42610688e-05 3.98360882e-04 -1.37200602e-03
3.50872855e-04 4.02941467e-04 -1.33757583e-03
4.02838298e-04 4.68912570e-04 -1.33109452e-03
6.25220447e-04 2.76950749e-04 -1.20471620e-03
8.21000020e-04 3.41036016e-04 -1.10483947e-03
8.98477026e-04 3.43468046e-04 -1.04496761e-03
8.68882662e-04 4.10917791e-04 -1.08755209e-03
-1.13628667e-03 6.49554015e-04 -8.54723657e-04
-1.04251711e-03 5.55222498e-04 -9.56252363e-04
-8.94387831e-04 6.98010300e-04 -1.09326257e-03
-9.29294118e-04 5.89049922e-04 -1.07087181e-03
-6.61790149e-04 5.58439045e-04 -1.24697544e-03
-4.68162098e-04 4.95382231e-04 -1.32140856e-03
-4.26514419e-04 4.23794516e-04 -1.32634016e-03
-3.52971360e-04 4.49787940e-04 -1.34987226e-03
-1.39919090e-04 4.64151019e-04 -1.37945319e-03
-2.01937674e-04 5.24098428e-04 -1.38156803e-03
-1.27215178e-04 5.55717967e-04 -1.39095638e-03
-6.54329232e-05 3.22863668e-04 -1.35980529e-03
2.39961152e-04 4.82197250e-04 -1.36850342e-03
3.19650321e-04 4.81601538e-04 -1.35378706e-03
1.60720759e-04 2.69381742e-04 -1.33231988e-03
3.16079302e-04 7.22677850e-04 -1.36552594e-03
3.71578597e-04 5.53385165e-04 -1.35012665e-03
5.19072244e-04 3.73791908e-04 -1.27788667e-03
6.67101737e-04 3.57697275e-04 -1.21306159e-03
8.02523016e-04 4.19594297e-04 -1.14266845e-03
9.86190733e-04 4.87665498e-04 -9.98265058e-04
-1.10843281e-03 5.79150435e-04 -8.84557148e-04
-1.08149951e-03 5.02891174e-04 -9.03812661e-04
-9.65195662e-04 7.39017181e-04 -1.02315418e-03
-8.05601171e-04 6.49015358e-04 -1.16660578e-03
-6.64125340e-04 6.45164456e-04 -1.24530308e-03
-5.15146421e-04 5.60596620e-04 -1.30615381e-03
-3.94367877e-04 5.19993354e-04 -1.34604934e-03
-2.76814037e-04 4.84223521e-04 -1.36773992e-03
-3.22304046e-04 5.48795535e-04 -1.36648326e-03
-2.56122453e-04 5.87944595e-04 -1.37938529e-03
-5.38923307e-05 5.90331910e-04 -1.39627539e-03
9.12519259e-05 5.85360253e-04 -1.39123553e-03
1.19804368e-04 5.09646320e-04 -1.38516213e-03
1.93374392e-04 5.48380233e-04 -1.37943165e-03
2.49932975e-04 6.34748879e-04 -1.37781341e-03
5.52411122e-04 5.15277283e-04 -1.28752293e-03
5.14931208e-04 5.86954540e-04 -1.30870142e-03
5.96186223e-04 3.52393905e-04 -1.24798367e-03
5.75619516e-04 4.37745734e-04 -1.27116135e-03
9.14107177e-04 4.86485743e-04 -1.06359351e-03
8.80627129e-04 5.65885283e-04 -1.09834955e-03
-1.15404596e-03 7.24415650e-04 -8.21764872e-04
-1.06613305e-03 6.33507054e-04 -9.34725447e-04
-1.01882647e-03 6.89505919e-04 -9.79749352e-04
-8.69850069e-04 6.25727608e-04 -1.11767129e-03
-5.86450380e-04 6.10182804e-04 -1.27988788e-03
-4.37369681e-04 5.87042878e-04 -1.33417215e-03
-4.33932768e-04 6.72093729e-04 -1.33082052e-03
-3.59160916e-04 6.22535961e-04 -1.35465061e-03
-2.87266051e-04 6.63627142e-04 -1.36932910e-03
-1.87946750e-04 6.24195005e-04 -1.38811174e-03
-1.16880880e-04 6.53665260e-04 -1.39415057e-03
1.74061551e-05 6.30342939e-04 -1.39540086e-03
8.24421049e-05 6.78427013e-04 -1.38941225e-03
1.66235242e-04 6.24040597e-04 -1.38619298e-03
2.39862951e-04 7.15137853e-04 -1.37772221e-03
4.56557478e-04 5.32137715e-04 -1.32363107e-03
4.19213057e-04 6.20441858e-04 -1.34136096e-03
5.94910735e-04 5.90234030e-04 -1.27568474e-03
6.51982872e-04 4.37369569e-04 -1.23666706e-03
8.45883543e-04 4.92267708e-04 -1.11923068e-03
8.52844732e-04 6.44043553e-04 -1.11981356e-03
-1.09620709e-03 6.99868484e-04 -8.97530167e-04
-1.05051376e-03 7.51645038e-04 -9.36765827e-04
-9.98994372e-04 8.00602470e-04 -9.73699966e-04
-6.77170286e-04 7.26717843e-04 -1.23116661e-03
-5.96319509e-04 6.92136329e-04 -1.27122469e-03
-5.09717494e-04 6.45162953e-04 -1.30696408e-03
-4.52468837e-04 7.49864059e-04 -1.31382520e-03
-3.60582721e-04 7.11538640e-04 -1.34615785e-03
-2.90490731e-04 7.51880926e-04 -1.35710881e-03
-2.13209108e-04 7.02536612e-04 -1.37863798e-03
-1.37792503e-04 7.33826146e-04 -1.38199699e-03
-4.52137294e-05 6.85008178e-04 -1.39230896e-03
2.27630292e-05 7.36600384e-04 -1.38288449e-03
1.01030240e-04 7.72943407e-04 -1.37698079e-03
1.59568992e-04 7.07276464e-04 -1.38439492e-03
3.93128995e-04 7.05078363e-04 -1.34807962e-03
4.29313489e-04 8.16697218e-04 -1.32112360e-03
4.82338108e-04 6.65666035e-04 -1.32156661e-03
6.33204401e-04 5.16007309e-04 -1.25656922e-03
7.26350620e-04 4.18314323e-04 -1.19268407e-03
8.14282149e-04 5.68133340e-04 -1.15330605e-03
-1.10967913e-03 7.79893156e-04 -8.63637457e-04
-9.94666653e-04 8.79823378e-04 -9.48915877e-04
-9.00261586e-04 7.76285917e-04 -1.07206956e-03
-7.44821574e-04 6.96360376e-04 -1.19996265e-03
-6.97530403e-04 8.02106238e-04 -1.20299210e-03
-5.25746398e-04 7.27326978e-04 -1.29429629e-03
-5.41690147e-04 8.04374738e-04 -1.27295050e-03
-3.82111918e-04 7.91238488e-04 -1.32702331e-03
-3.09322213e-04 8.30658773e-04 -1.33529537e-03
-2.17830297e-04 7.87583632e-04 -1.36309533e-03
-1.46257914e-04 8.17287026e-04 -1.36337056e-03
-6.58056786e-05 7.70344004e-04 -1.37705122e-03
4.48974021e-06 8.18223732e-04 -1.36770128e-03
8.33197616e-05 8.50093091e-04 -1.36311627e-03
1.86077684e-04 7.90984472e-04 -1.37206540e-03
3.55687157e-04 7.94195246e-04 -1.34701315e-03
5.08414429e-04 8.23540968e-04 -1.28738038e-03
4.60581757e-04 7.45947314e-04 -1.32321647e-03
6.76166906e-04 5.89825584e-04 -1.23869768e-03
7.76992760e-04 4.93697305e-04 -1.17439560e-03
8.25860247e-04 7.27563794e-04 -1.13001325e-03
-1.05503767e-03 8.30816566e-04 -9.06358381e-04
-9.82093892e-04 9.54435024e-04 -9.22291030e-04
[...]
POINT_DATA 20213
SCALARS pressure double 1
LOOKUP_TABLE default
6.25305831e+02
6.06025195e+02
9.06060930e+02
0.00000000e+00
7.91762201e+02
9.45873214e+02
8.23630073e+02
0.00000000e+00
7.44302544e+02
1.05266555e+03
6.53380980e+02
7.77179411e+02
6.52422370e+02
0.00000000e+00
0.00000000e+00
6.12427942e+02
9.36400557e+02
7.22645508e+02
9.97232073e+02
9.66357312e+02
1.09257038e+03
0.00000000e+00
0.00000000e+00
7.09992100e+02
0.00000000e+00
8.28213875e+02
0.00000000e+00
9.02349163e+02
0.00000000e+00
7.39669415e+02
5.51309215e+02
0.00000000e+00
5.80631221e+02
0.00000000e+00
0.00000000e+00
0.00000000e+00
0.00000000e+00
0.00000000e+00
7.26392557e+02
0.00000000e+00
7.83644413e+02
0.00000000e+00
6.05561749e+02
0.00000000e+00
0.00000000e+00
0.00000000e+00
0.00000000e+00
8.48877019e+02
0.00000000e+00
8.42023486e+02
0.00000000e+00
0.00000000e+00
0.00000000e+00
6.38579256e+02
0.00000000e+00
0.00000000e+00
6.85760130e+02
0.00000000e+00
0.00000000e+00
0.00000000e+00
9.69083394e+02
0.00000000e+00
0.00000000e+00
0.00000000e+00
0.00000000e+00
0.00000000e+00
0.00000000e+00
8.43319505e+02
8.30439273e+02
7.45337120e+02
0.00000000e+00
0.00000000e+00
0.00000000e+00
0.00000000e+00
0.00000000e+00
0.00000000e+00
0.00000000e+00
6.32632379e+02
0.00000000e+00
0.00000000e+00
8.76161685e+02
0.00000000e+00
0.00000000e+00
0.00000000e+00
0.00000000e+00
0.00000000e+00
0.00000000e+00
7.36857294e+02
0.00000000e+00
7.80298934e+02
0.00000000e+00
0.00000000e+00
0.00000000e+00
0.00000000e+00
0.00000000e+00
0.00000000e+00
5.07062195e+02
0.00000000e+00
5.58492057e+02
0.00000000e+00
0.00000000e+00
0.00000000e+00
8.08080255e+02
4.54796826e+02
0.00000000e+00
0.00000000e+00
0.00000000e+00
0.00000000e+00
0.00000000e+00
0.00000000e+00
0.00000000e+00
0.00000000e+00
0.00000000e+00
0.00000000e+00
3.64617123e+02
0.00000000e+00
0.00000000e+00
6.59163598e+02
0.00000000e+00
7.08156134e+02
0.00000000e+00
0.00000000e+00
0.00000000e+00
7.75085871e+02
7.44578075e+02
0.00000000e+00
0.00000000e+00
0.00000000e+00
0.00000000e+00
6.74445880e+02
0.00000000e+00
0.00000000e+00
0.00000000e+00
5.53204806e+02
0.00000000e+00
5.57630179e+02
0.00000000e+00
6.17192043e+02
6.27163937e+02
6.97185554e+02
0.00000000e+00
5.50409781e+02
0.00000000e+00
0.00000000e+00
0.00000000e+00
0.00000000e+00
0.00000000e+00
0.00000000e+00
0.00000000e+00
0.00000000e+00
0.00000000e+00
0.00000000e+00
0.00000000e+00
6.93676555e+02
0.00000000e+00
0.00000000e+00
0.00000000e+00
0.00000000e+00
0.00000000e+00
5.79045538e+02
0.00000000e+00
0.00000000e+00
0.00000000e+00
0.00000000e+00
0.00000000e+00
7.05425316e+02
0.00000000e+00
0.00000000e+00
3.52718389e+02
0.00000000e+00
0.00000000e+00
0.00000000e+00
0.00000000e+00
6.94314930e+02
9.22959130e+02
7.60773733e+02
7.52882855e+02
0.00000000e+00
5.63536277e+02
0.00000000e+00
4.96113629e+02
0.00000000e+00
0.00000000e+00
0.00000000e+00
0.00000000e+00
0.00000000e+00
6.47218308e+02
7.50639586e+02
0.00000000e+00
0.00000000e+00
0.00000000e+00
0.00000000e+00
0.00000000e+00
0.00000000e+00
7.01839760e+02
7.31582752e+02
9.37510887e+02
8.33702686e+02
7.57519034e+02
0.00000000e+00
0.00000000e+00
0.00000000e+00
3.56421020e+02
0.00000000e+00
0.00000000e+00
6.48928010e+02
0.00000000e+00
0.00000000e+00
0.00000000e+00
0.00000000e+00
0.00000000e+00
0.00000000e+00
0.00000000e+00
0.00000000e+00
0.00000000e+00
0.00000000e+00
8.79639784e+02
8.87480500e+02
7.39123407e+02
6.56775517e+02
6.46352304e+02
0.00000000e+00
0.00000000e+00
0.00000000e+00
0.00000000e+00
0.00000000e+00
0.00000000e+00
0.00000000e+00
0.00000000e+00
0.00000000e+00
0.00000000e+00
0.00000000e+00
0.00000000e+00
0.00000000e+00
0.00000000e+00
0.00000000e+00
0.00000000e+00
0.00000000e+00
0.00000000e+00
6.81013778e+02
6.06746559e+02
0.00000000e+00
0.00000000e+00
0.00000000e+00
0.00000000e+00
0.00000000e+00
0.00000000e+00
0.00000000e+00
6.08196845e+02
0.00000000e+00
0.00000000e+00
0.00000000e+00
0.00000000e+00
9.29824131e+02
0.00000000e+00
4.99729606e+02
3.55903858e+02
0.00000000e+00
0.00000000e+00
0.00000000e+00
0.00000000e+00
0.00000000e+00
0.00000000e+00
0.00000000e+00
0.00000000e+00
0.00000000e+00
0.00000000e+00
8.42031694e+02
6.74936348e+02
7.21469838e+02
0.00000000e+00
0.00000000e+00
0.00000000e+00
9.44400858e+02
0.00000000e+00
9.00102183e+02
0.00000000e+00
0.00000000e+00
0.00000000e+00
0.00000000e+00
0.00000000e+00
0.00000000e+00
0.00000000e+00
0.00000000e+00
0.00000000e+00
5.22695835e+02
0.00000000e+00
7.43274151e+02
8.31449301e+02
0.00000000e+00
0.00000000e+00
6.62420043e+02
6.86115535e+02
0.00000000e+00
1.13666613e+03
0.00000000e+00
0.00000000e+00
0.00000000e+00
0.00000000e+00
0.00000000e+00
0.00000000e+00
0.00000000e+00
0.00000000e+00
0.00000000e+00
0.00000000e+00
8.09544904e+02
0.00000000e+00
6.44091565e+02
7.15976516e+02
0.00000000e+00
6.64167862e+02
7.24618336e+02
5.82004837e+02
0.00000000e+00
0.00000000e+00
1.16333345e+03
1.22528196e+03
6.13632118e+02
0.00000000e+00
0.00000000e+00
0.00000000e+00
0.00000000e+00
0.00000000e+00
0.00000000e+00
0.00000000e+00
0.00000000e+00
0.00000000e+00
0.00000000e+00
7.29497648e+02
0.00000000e+00
8.36162156e+02
6.07241128e+02
0.00000000e+00
0.00000000e+00
7.62566222e+02
7.55647741e+02
1.13606907e+03
0.00000000e+00
0.00000000e+00
3.14840031e+02
0.00000000e+00
0.00000000e+00
0.00000000e+00
0.00000000e+00
0.00000000e+00
0.00000000e+00
5.13915439e+02
8.76725205e+02
0.00000000e+00
0.00000000e+00
0.00000000e+00
0.00000000e+00
0.00000000e+00
0.00000000e+00
0.00000000e+00
7.69500427e+02
7.18062925e+02
8.77966884e+02
0.00000000e+00
0.00000000e+00
0.00000000e+00
0.00000000e+00
0.00000000e+00
6.91389598e+02
0.00000000e+00
0.00000000e+00
0.00000000e+00
0.00000000e+00
1.05050335e+03
1.06127832e+03
0.00000000e+00
8.10084220e+02
0.00000000e+00
0.00000000e+00
0.00000000e+00
0.00000000e+00
0.00000000e+00
8.52402797e+02
8.63239643e+02
6.80027887e+02
0.00000000e+00
7.73628967e+02
0.00000000e+00
9.97544472e+02
0.00000000e+00
0.00000000e+00
4.70351985e+02
0.00000000e+00
0.00000000e+00
1.27595654e+03
1.41280586e+03
1.25894303e+03
1.08626847e+03
1.17421675e+03
0.00000000e+00
0.00000000e+00
0.00000000e+00
0.00000000e+00
0.00000000e+00
0.00000000e+00
0.00000000e+00
0.00000000e+00
0.00000000e+00
9.37421162e+02
8.88233906e+02
9.18704332e+02
0.00000000e+00
0.00000000e+00
0.00000000e+00
1.09544618e+03
1.18012084e+03
1.30138372e+03
1.43677205e+03
1.30712513e+03
1.17137454e+03
0.00000000e+00
9.01008090e+02
8.03879644e+02
0.00000000e+00
0.00000000e+00
0.00000000e+00
0.00000000e+00
0.00000000e+00
0.00000000e+00
0.00000000e+00
1.06616945e+03
1.05066887e+03
0.00000000e+00
1.24906966e+03
1.16449589e+03
0.00000000e+00
0.00000000e+00
1.30368438e+03
1.52446082e+03
1.40789161e+03
1.14676048e+03
1.19695402e+03
1.03970491e+03
0.00000000e+00
0.00000000e+00
6.25355880e+02
0.00000000e+00
0.00000000e+00
8.46531741e+02
0.00000000e+00
9.21877917e+02
0.00000000e+00
1.05415401e+03
9.44591792e+02
6.89278291e+02
9.45855997e+02
1.38928759e+03
1.14890080e+03
7.86780949e+02
8.46598524e+02
7.87732233e+02
1.28671142e+03
6.95503846e+02
9.40130749e+02
1.00159730e+03
0.00000000e+00
0.00000000e+00
0.00000000e+00
1.30229787e+03
1.15966239e+03
1.70331332e+03
7.39718195e+02
1.25410821e+03
8.95026996e+02
9.20549996e+02
7.18240300e+02
1.69734288e+03
2.09157268e+03
2.14317277e+03
9.22790126e+02
2.08087111e+03
1.65752394e+03
1.06059876e+03
1.11058165e+03
9.98230528e+02
1.29529043e+03
9.74330273e+02
0.00000000e+00
5.53378167e+02
1.17135026e+03
1.05232275e+03
1.64389350e+03
7.05481538e+02
8.74586832e+02
1.80898526e+03
0.00000000e+00
0.00000000e+00
7.88194390e+02
0.00000000e+00
0.00000000e+00
0.00000000e+00
0.00000000e+00
1.88407290e+03
7.93640867e+02
9.29489221e+02
7.64527776e+02
1.18111903e+03
1.11946627e+03
0.00000000e+00
0.00000000e+00
9.48028766e+02
2.10767933e+03
1.04723137e+03
6.97189473e+02
2.13100290e+03
4.36182561e+02
1.35387157e+03
5.06837240e+02
1.09033634e+03
8.36740549e+02
1.35956057e+03
1.23626597e+03
1.21221946e+03
9.53093178e+02
8.67048480e+02
1.39354261e+03
9.56508547e+02
9.03183244e+02
1.49735413e+03
0.00000000e+00
8.18906437e+02
1.20879326e+03
1.73270220e+03
1.67919782e+03
2.11714034e+03
1.98791094e+03
1.17226207e+03
5.96078748e+02
4.88879830e+02
1.49638463e+03
1.84664119e+03
2.10566561e+03
7.56449861e+02
1.61814933e+03
7.72012329e+02
1.75140547e+03
8.01271917e+02
1.01918952e+03
1.21389833e+03
7.67798905e+02
6.85375742e+02
8.24394811e+02
2.24318538e+03
1.10801770e+03
6.76383868e+02
2.23839003e+03
0.00000000e+00
2.11040593e+03
1.39576420e+03
4.60034726e+02
6.21618310e+02
1.92710532e+03
9.49534525e+02
1.29205581e+03
1.14815193e+03
9.13458930e+02
0.00000000e+00
9.28822625e+02
9.93473455e+02
8.76202808e+02
1.08149856e+03
0.00000000e+00
8.50047231e+02
1.37215812e+03
1.01657350e+03
1.22177531e+03
1.45146959e+03
5.74424635e+02
1.79041236e+03
1.39247851e+03
3.77003459e+02
1.98696237e+03
8.63004905e+02
1.44318919e+03
2.07598487e+03
1.14469557e+03
1.11417091e+03
1.22162947e+03
1.11474110e+03
7.99080317e+02
7.94683703e+02
8.63937406e+02
0.00000000e+00
6.01381843e+02
9.73699347e+02
0.00000000e+00
1.28469700e+03
1.35839568e+03
1.72652119e+03
8.23860302e+02
1.94079905e+03
1.99725164e+03
1.70675713e+03
1.30153933e+03
9.62795601e+02
2.08272483e+03
1.16441938e+03
1.30804274e+03
1.45795409e+03
8.14923307e+02
8.33327771e+02
5.48885711e+02
9.19150126e+02
0.00000000e+00
7.48882655e+02
1.74539499e+03
0.00000000e+00
7.69677554e+02
1.94330739e+03
1.41834673e+03
7.54011113e+02
1.84953690e+03
1.96017364e+03
7.36372632e+02
1.55132625e+03
2.09187309e+03
1.68697099e+03
1.24821608e+03
9.76907974e+02
8.00805033e+02
1.98789179e+03
1.96960500e+03
0.00000000e+00
1.01814367e+03
5.33330291e+02
0.00000000e+00
1.94577001e+03
0.00000000e+00
9.45278927e+02
8.61212794e+02
3.83916202e+02
5.05073239e+02
6.52248748e+02
1.68485664e+03
9.12527684e+02
8.58383490e+02
8.49860349e+02
1.99090529e+03
1.15686579e+03
1.00411129e+03
1.25523150e+03
7.61691674e+02
1.01797026e+03
0.00000000e+00
8.91182050e+02
6.35147492e+02
0.00000000e+00
1.36232375e+03
0.00000000e+00
1.09387399e+03
6.44289402e+02
9.36304058e+02
4.96808831e+02
1.27476146e+03
1.27211285e+03
1.64061349e+03
1.14441179e+03
1.54579502e+03
8.03874299e+02
1.54220415e+03
1.17946945e+03
8.69098888e+02
1.67287654e+03
1.98803708e+03
0.00000000e+00
1.29249520e+03
6.56755739e+02
0.00000000e+00
1.09781896e+03
0.00000000e+00
6.45369292e+02
6.66358679e+02
7.41598324e+02
8.24635098e+02
7.69397960e+02
2.21783130e+03
1.47504414e+03
2.11011047e+03
1.33138536e+03
1.42324206e+03
1.25307469e+03
1.36367814e+03
1.11311505e+03
1.02656412e+03
8.69839136e+02
0.00000000e+00
9.06395375e+02
5.77217234e+02
9.61712629e+02
1.30772918e+03
0.00000000e+00
1.46723343e+03
1.63577985e+03
8.13741442e+02
1.33287230e+03
1.73649784e+03
2.14942091e+03
1.30023424e+03
1.46695501e+03
1.89834366e+03
7.98499398e+02
2.12344646e+03
1.32511915e+03
1.16068122e+03
1.17384444e+03
2.00787556e+03
0.00000000e+00
1.73918583e+03
6.82804249e+02
1.00907861e+03
7.73692640e+02
0.00000000e+00
1.38665744e+03
7.97923721e+02
9.62119992e+02
1.20957138e+03
1.09241931e+03
1.73699183e+03
1.01848955e+03
1.05987219e+03
9.64244336e+02
1.39288470e+03
9.90094902e+02
1.40160936e+03
1.07032313e+03
1.02299362e+03
1.34344582e+03
0.00000000e+00
8.22101635e+02
7.97078068e+02
1.09428790e+03
5.73615056e+02
5.64982110e+02
1.18631510e+03
1.29644919e+03
1.09344287e+03
1.56947282e+03
2.20157638e+03
1.60962030e+03
1.23400974e+03
1.88600633e+03
1.34426726e+03
1.31315018e+03
1.12409130e+03
1.24058874e+03
1.40007042e+03
1.89226784e+03
1.00702799e+03
9.97311500e+02
8.28118917e+02
0.00000000e+00
1.08636782e+03
8.91607614e+02
9.45986397e+02
7.97563693e+02
9.33933315e+02
0.00000000e+00
1.27845147e+03
1.33209840e+03
7.90162099e+02
1.29816375e+03
1.40384965e+03
1.50694826e+03
1.43493080e+03
1.46784715e+03
1.23945567e+03
0.00000000e+00
1.61951439e+03
9.75507635e+02
1.31556410e+03
9.11242075e+02
8.88650240e+02
1.00789311e+03
1.31461798e+03
1.42526273e+03
7.62655572e+02
1.93207405e+03
1.27830430e+03
1.41583785e+03
1.15169718e+03
1.64577548e+03
1.23191332e+03
1.30381858e+03
1.41314337e+03
1.48297973e+03
1.39386554e+03
2.07526452e+03
1.38230183e+03
2.03443663e+03
1.05120208e+03
1.60529484e+03
7.25796201e+02
0.00000000e+00
5.98951259e+02
8.88911267e+02
6.98396220e+02
1.09484585e+03
1.10217037e+03
1.56287997e+03
1.41294906e+03
1.42788443e+03
1.45321538e+03
1.34314818e+03
1.45818373e+03
1.35344415e+03
1.88953114e+03
1.63063337e+03
1.37188117e+03
1.03660357e+03
1.20405333e+03
1.42590476e+03
8.72002046e+02
7.55456517e+02
8.25364787e+02
0.00000000e+00
9.78260253e+02
7.49334001e+02
9.44887250e+02
1.40371604e+03
1.29506694e+03
1.16837204e+03
0.00000000e+00
0.00000000e+00
0.00000000e+00
8.62618381e+02
1.02803632e+03
1.34109840e+03
1.54485971e+03
8.94701432e+02
1.29673422e+03
1.02305390e+03
9.16872803e+02
7.71822497e+02
1.23523853e+03
0.00000000e+00
0.00000000e+00
1.74981439e+03
9.85693821e+02
1.35633203e+03
1.02832182e+03
1.40876384e+03
1.26038660e+03
1.39243791e+03
1.43759920e+03
1.38120105e+03
1.70394830e+03
1.42915523e+03
1.77450322e+03
1.41659431e+03
1.34746346e+03
1.13226827e+03
1.15037935e+03
1.17070049e+03
1.11255600e+03
1.94746513e+03
0.00000000e+00
0.00000000e+00
0.00000000e+00
0.00000000e+00
0.00000000e+00
0.00000000e+00
1.08505982e+03
1.12075878e+03
1.27830601e+03
1.43914712e+03
0.00000000e+00
1.19063308e+03
1.24605336e+03
1.26642754e+03
1.37338813e+03
0.00000000e+00
1.06669292e+03
6.55421640e+02
8.74198243e+02
0.00000000e+00
6.59979705e+02
0.00000000e+00
7.04564599e+02
0.00000000e+00
0.00000000e+00
8.67646337e+02
8.59077128e+02
7.11623265e+02
0.00000000e+00
0.00000000e+00
0.00000000e+00
6.16479675e+02
4.92571327e+02
9.44805365e+02
8.23797193e+02
6.85949610e+02
6.88253752e+02
0.00000000e+00
6.43633378e+02
7.08234285e+02
0.00000000e+00
0.00000000e+00
1.38404384e+03
5.25388463e+02
1.33370376e+03
1.19879212e+03
1.04827936e+03
9.14501732e+02
1.06920631e+03
7.63271370e+02
5.76326388e+02
1.99760413e+03
7.86013849e+02
7.53605784e+02
1.02350138e+03
6.36651468e+02
7.46209193e+02
8.70996812e+02
1.16636695e+03
2.02156776e+03
1.34207620e+03
1.11544272e+03
9.71571518e+02
0.00000000e+00
7.03622661e+02
1.08090141e+03
1.77923851e+03
2.10482897e+03
2.28215275e+03
1.73319208e+03
2.17299593e+03
8.65793543e+02
2.00999064e+03
8.92858417e+02
6.24292812e+02
7.53460198e+02
8.39899199e+02
1.14119573e+03
1.16798222e+03
1.90886409e+03
8.83722176e+02
8.42773018e+02
8.38400176e+02
1.28216636e+03
0.00000000e+00
0.00000000e+00
1.15983787e+03
1.75359605e+03
8.48318451e+02
1.88223894e+03
9.71351474e+02
1.49383813e+03
9.91299819e+02
1.61137443e+03
5.17713379e+02
5.12692983e+02
1.44633083e+03
1.18437452e+03
7.80883133e+02
1.07388523e+03
8.87841916e+02
8.75591556e+02
1.51613115e+03
1.00091263e+03
1.23277956e+03
0.00000000e+00
0.00000000e+00
1.57371383e+03
1.29261520e+03
9.68675787e+02
1.31712162e+03
2.25614151e+03
1.06156408e+03
1.38352566e+03
7.72328177e+02
1.46357859e+03
7.60472656e+02
7.49329478e+02
8.60919888e+02
9.31230331e+02
0.00000000e+00
8.99489047e+02
1.05634783e+03
9.08161236e+02
1.67052613e+03
1.15740426e+03
0.00000000e+00
9.43316505e+02
1.32382123e+03
1.76862960e+03
1.25967196e+03
2.00678721e+03
1.75934090e+03
1.37313431e+03
1.47249923e+03
9.76876587e+02
1.08951575e+03
6.95514320e+02
2.12272015e+03
9.05776675e+02
7.48693722e+02
1.21270811e+03
7.20557807e+02
1.18464272e+03
9.17439287e+02
9.17161950e+02
8.60809676e+02
0.00000000e+00
8.24571398e+02
1.32298018e+03
2.16700149e+03
9.91005987e+02
1.98725064e+03
1.87766431e+03
1.20545329e+03
1.65195439e+03
1.43351432e+03
2.14338440e+03
1.22342534e+03
7.91925292e+02
9.70420087e+02
9.13024326e+02
1.51448314e+03
1.82862943e+03
8.59095350e+02
1.98275169e+03
1.07434959e+03
1.04539381e+03
7.75742601e+02
8.81739507e+02
0.00000000e+00
2.11787423e+03
1.90913484e+03
1.80723935e+03
1.63782168e+03
5.03970427e+02
1.12974930e+03
8.55336852e+02
1.07915631e+03
1.99553339e+03
1.21787922e+03
1.13829762e+03
1.95387832e+03
1.91156435e+03
1.22487095e+03
1.80004692e+03
2.05512407e+03
1.82842766e+03
9.22221362e+02
0.00000000e+00
8.40861924e+02
0.00000000e+00
5.95306444e+02
9.97363736e+02
1.76600171e+03
1.05325391e+03
2.26096220e+03
9.41171090e+02
1.82180638e+03
1.66037783e+03
1.95436459e+03
1.04907296e+03
8.09184498e+02
1.08421896e+03
1.97319235e+03
8.96102073e+02
2.04122496e+03
1.51469564e+03
1.17505176e+03
7.64807860e+02
0.00000000e+00
8.21062800e+02
0.00000000e+00
1.89869032e+03
7.85208922e+02
2.26759694e+03
2.23977594e+03
1.99088222e+03
5.38094599e+02
6.95882857e+02
1.64692834e+03
8.42122487e+02
1.94855191e+03
1.00055566e+03
8.53344219e+02
1.29271309e+03
9.41919420e+02
1.22409364e+03
1.05704139e+03
1.03097630e+03
8.48192771e+02
0.00000000e+00
0.00000000e+00
0.00000000e+00
1.44779446e+03
7.41170010e+02
1.75184038e+03
2.02907319e+03
1.41440351e+03
9.64676205e+02
2.14440210e+03
2.21433148e+03
8.92484996e+02
2.17162207e+03
7.35553188e+02
2.01695726e+03
1.49939985e+03
1.41610398e+03
1.09302937e+03
1.02132008e+03
9.22161216e+02
0.00000000e+00
0.00000000e+00
0.00000000e+00
0.00000000e+00
2.24281316e+03
9.53834661e+02
1.68008890e+03
0.00000000e+00
1.32436930e+03
7.71294266e+02
2.15691837e+03
1.99499154e+03
1.77645868e+03
1.40588152e+03
9.38337691e+02
1.83051647e+03
1.38690445e+03
1.29484343e+03
9.93516379e+02
1.25085188e+03
1.98959376e+03
0.00000000e+00
0.00000000e+00
0.00000000e+00
0.00000000e+00
2.05521990e+03
9.61604039e+02
2.15055138e+03
1.62570332e+03
2.25464177e+03
2.06314755e+03
1.96122194e+03
1.99527286e+03
1.04305845e+03
2.02698612e+03
8.03433562e+02
1.75846269e+03
8.62561788e+02
2.05124209e+03
2.01719560e+03
1.12588248e+03
1.95940883e+03
0.00000000e+00
0.00000000e+00
1.01391113e+03
0.00000000e+00
2.19574295e+03
1.15068834e+03
2.13380931e+03
1.37886968e+03
1.29023278e+03
1.08938184e+03
1.44827858e+03
1.68381249e+03
6.08341056e+02
2.14338821e+03
1.88972270e+03
1.87608331e+03
1.19234801e+03
1.28362300e+03
2.01526191e+03
1.48989288e+03
1.07783427e+03
0.00000000e+00
1.03369981e+03
8.96983263e+02
1.75723799e+03
1.75619473e+03
1.45271322e+03
1.96893678e+03
1.75421451e+03
1.40328092e+03
1.12215218e+03
1.95190602e+03
1.69707382e+03
1.46091462e+03
1.75130300e+03
1.73929026e+03
1.44116839e+03
1.89327455e+03
2.02389310e+03
8.68630122e+02
1.49563159e+03
1.78795377e+03
8.14266325e+02
0.00000000e+00
9.60671838e+02
1.29885958e+03
2.02090079e+03
1.61416604e+03
1.98328328e+03
1.97502722e+03
2.13003717e+03
1.33077220e+03
2.14901393e+03
1.71991402e+03
7.92021662e+02
1.75917384e+03
1.94772561e+03
1.38701341e+03
1.66545740e+03
1.91293024e+03
1.77426963e+03
1.66780294e+03
1.31046809e+03
8.19393433e+02
9.09265744e+02
0.00000000e+00
1.79714308e+03
1.19197079e+03
2.11092252e+03
1.82324086e+03
1.60931017e+03
9.45955172e+02
1.44120845e+03
1.66729872e+03
2.07184330e+03
2.04097438e+03
1.43566791e+03
1.16884135e+03
1.41537064e+03
1.91494678e+03
9.26907787e+02
1.89010310e+03
1.92332757e+03
1.69304589e+03
1.22279614e+03
9.68386749e+02
0.00000000e+00
5.43170058e+02
9.51788413e+02
1.16667694e+03
1.41818876e+03
1.98498908e+03
1.99712234e+03
1.75896997e+03
1.35784955e+03
1.42526958e+03
1.34984036e+03
1.29024838e+03
1.10834849e+03
1.40747668e+03
1.40662502e+03
2.01239628e+03
1.94507353e+03
1.76006350e+03
1.57834959e+03
9.42730271e+02
8.23317632e+02
0.00000000e+00
1.08270497e+03
1.79644235e+03
1.70387188e+03
1.39735077e+03
1.82779839e+03
1.49633573e+03
1.90012625e+03
1.96771123e+03
1.76985167e+03
1.42631058e+03
2.10981909e+03
1.68490962e+03
1.50336129e+03
1.52779292e+03
1.79964128e+03
1.98959852e+03
2.04035555e+03
1.77590772e+03
1.00833737e+03
0.00000000e+00
0.00000000e+00
1.18618169e+03
9.06733373e+02
1.66855853e+03
1.91978398e+03
1.74488143e+03
1.32988582e+03
1.51670027e+03
1.33170901e+03
1.34472767e+03
0.00000000e+00
1.31984362e+03
1.28021784e+03
1.21940788e+03
1.32808791e+03
1.10781334e+03
1.48276506e+03
9.86353076e+02
1.72676073e+03
6.94702587e+02
0.00000000e+00
0.00000000e+00
0.00000000e+00
0.00000000e+00
0.00000000e+00
0.00000000e+00
1.26031030e+03
1.18226729e+03
1.22048075e+03
1.49729720e+03
1.29310372e+03
1.41414119e+03
1.23980896e+03
1.00409369e+03
0.00000000e+00
0.00000000e+00
0.00000000e+00
0.00000000e+00
0.00000000e+00
6.17551015e+02
6.79359968e+02
0.00000000e+00
0.00000000e+00
5.77457350e+02
0.00000000e+00
2.01138824e+03
1.05402685e+03
1.29772692e+03