# vtk DataFile Version 3.0
MPS 3D Simulation Step 8800
ASCII
DATASET UNSTRUCTURED_GRID
POINTS 20213 double
-1.16730453e-03 3.15784122e-04 -7.75997246e-04
-1.08033227e-03 1.71944406e-04 -8.27538808e-04
-9.56943339e-04 2.92463131e-04 -1.03021681e-03
-9.08029393e-04 3.35421906e-04 -1.08579215e-03
-8.66371997e-04 1.54950134e-04 -1.02945491e-03
-8.53103620e-04 3.76223768e-04 -1.13524761e-03
-6.39555496e-04 2.41993672e-04 -1.22165807e-03
-5.04102142e-04 2.63541255e-04 -1.28310088e-03
-4.69437244e-04 4.27702905e-04 -1.21983462e-03
-4.01078769e-04 8.83931945e-04 -1.10385626e-03
-2.22521038e-04 9.43433366e-04 -1.08094893e-03
-3.73519780e-04 9.42791675e-04 -1.19677790e-03
-7.47752882e-05 7.22508633e-04 -1.09005007e-03
-3.62128580e-05 2.12077776e-04 -1.34007556e-03
2.81291483e-05 2.60745048e-04 -1.36202557e-03
4.94865308e-04 1.47410074e-04 -1.21579609e-03
1.81203497e-04 7.59604903e-04 -6.50064027e-04
4.90459580e-04 2.38536713e-04 -1.26992024e-03
5.28608132e-04 8.31845876e-04 -1.06849674e-03
7.29035281e-04 8.53245432e-04 -8.88264214e-04
1.12262042e-03 6.68423875e-04 -7.12556886e-04
-1.13695710e-03 2.27413364e-04 -7.78390511e-04
-1.09895009e-03 2.42041487e-04 -8.50133739e-04
-1.02201610e-03 3.27375228e-04 -9.77508359e-04
-9.31692715e-04 4.16025071e-04 -1.07823499e-03
-8.88296752e-04 5.33612737e-04 -1.11511032e-03
-1.00115450e-03 4.58457892e-04 -1.02036082e-03
-7.95803858e-04 4.13401658e-04 -1.18178760e-03
-6.04487330e-04 3.81939016e-04 -1.27688718e-03
-4.00222642e-04 2.30418514e-04 -1.30324268e-03
-4.24747801e-04 1.33289654e-04 -1.23504984e-03
-1.28259685e-04 2.33101190e-04 -1.34434123e-03
9.96499506e-05 2.12416381e-04 -1.34973451e-03
1.54682632e-04 3.99241823e-04 -1.39335405e-03
2.67692748e-04 3.36892501e-04 -1.37382583e-03
2.48846589e-04 2.54996468e-04 -1.34907995e-03
4.42914669e-04 1.78172495e-04 -1.26014279e-03
4.05067006e-04 3.38626980e-04 -1.33745849e-03
4.03233850e-04 7.50910708e-04 -1.24757649e-03
4.10143962e-04 2.58688711e-04 -1.30763279e-03
5.53791260e-04 2.14690008e-04 -1.22988137e-03
7.75620109e-04 1.18300180e-04 -9.99158386e-04
-1.12627042e-03 3.12586729e-04 -8.41526472e-04
-1.08714362e-03 3.64118342e-04 -9.08087308e-04
-1.08769061e-03 5.69077689e-04 -9.36410734e-04
-8.39042073e-04 2.91365980e-04 -1.12282010e-03
-9.80965912e-04 3.74034037e-04 -1.02978115e-03
-8.74391515e-04 4.55907634e-04 -1.12631611e-03
-5.84475616e-04 2.97535640e-04 -1.26456020e-03
-7.17514518e-04 2.78071392e-04 -1.19632051e-03
-4.51040808e-04 3.75606740e-04 -1.32983621e-03
-3.20117253e-04 2.35450980e-04 -1.32446784e-03
-1.45601098e-04 4.27976861e-04 -1.38874872e-03
-6.86337187e-05 2.88877223e-04 -1.36546658e-03
9.07450378e-05 4.64166106e-04 -1.40370535e-03
3.26394944e-04 3.91283252e-04 -1.37348307e-03
2.60235923e-04 1.73813886e-04 -1.31124667e-03
3.82818533e-04 4.95314882e-04 -1.37819265e-03
4.78824349e-04 3.97860385e-04 -1.32677551e-03
4.01776798e-04 4.19342635e-04 -1.35846243e-03
6.23890959e-04 2.85160688e-04 -1.22580988e-03
7.13270474e-04 1.97897585e-04 -1.12994715e-03
7.03470161e-04 1.23713015e-04 -1.06791886e-03
-1.18533869e-03 4.03623269e-04 -7.70662084e-04
-1.10398055e-03 4.48825402e-04 -9.03967660e-04
-1.06193258e-03 4.95824035e-04 -9.61022508e-04
-9.46623577e-04 4.98767883e-04 -1.07008015e-03
-8.14342056e-04 4.96803522e-04 -1.17075119e-03
-7.29480144e-04 3.67899093e-04 -1.21550139e-03
-6.60979210e-04 3.26275571e-04 -1.24158914e-03
-3.56425229e-04 3.11301376e-04 -1.34025561e-03
-2.94990971e-04 3.59785633e-04 -1.36471061e-03
-3.60748010e-04 1.70406138e-04 -1.28202229e-03
-7.50075564e-05 4.76573172e-04 -1.39877401e-03
-1.75957866e-04 1.65841514e-04 -1.30776376e-03
-5.83715118e-05 3.90752835e-04 -1.38825118e-03
5.48713252e-07 3.32049501e-04 -1.38100375e-03
2.36235718e-04 4.22868346e-04 -1.39209349e-03
3.35558937e-04 3.02164138e-04 -1.34793956e-03
4.17859081e-04 5.64389269e-04 -1.37214705e-03
6.91144993e-04 3.43497536e-04 -1.21047946e-03
6.92808827e-04 2.60620441e-04 -1.17792773e-03
7.73772456e-04 2.54788621e-04 -1.12528815e-03
8.42486887e-04 2.73005938e-04 -1.08598294e-03
-1.20345121e-03 4.97833548e-04 -7.59009358e-04
-1.04074034e-03 6.13910137e-04 -9.84143942e-04
-1.04611404e-03 4.10322064e-04 -9.68660210e-04
-8.31128758e-04 5.80521998e-04 -1.15514441e-03
-6.88002788e-04 5.11583558e-04 -1.25111405e-03
-7.43927187e-04 4.64522275e-04 -1.21797475e-03
-3.76086751e-04 3.97714072e-04 -1.35184839e-03
-3.02290274e-04 4.37713977e-04 -1.37428071e-03
-2.14501572e-04 3.74082868e-04 -1.37584206e-03
-1.56939881e-04 5.15820347e-04 -1.39633102e-03
-7.99209305e-05 5.62026299e-04 -1.40656074e-03
-1.81305522e-04 2.88839259e-04 -1.36150988e-03
-9.23238032e-07 5.18944408e-04 -1.40743909e-03
2.34913646e-04 5.97056555e-04 -1.41363252e-03
1.25659875e-05 4.34113606e-04 -1.39672540e-03
3.06789367e-04 4.70291530e-04 -1.39191368e-03
3.25675888e-04 5.56503417e-04 -1.39642317e-03
5.54573373e-04 3.02018077e-04 -1.26477164e-03
7.55040028e-04 3.23365955e-04 -1.16772717e-03
8.23925669e-04 3.44156618e-04 -1.12775856e-03
8.23245855e-04 4.27461047e-04 -1.15255693e-03
-1.19783925e-03 6.29754485e-04 -7.76907732e-04
-1.13015910e-03 5.27217427e-04 -8.81474449e-04
-9.83813822e-04 6.57760851e-04 -1.03052897e-03
-1.01421538e-03 5.43504621e-04 -1.01143929e-03
-7.60095423e-04 5.49783952e-04 -1.20712836e-03
-6.16532826e-04 4.71385479e-04 -1.28273111e-03
-5.39403598e-04 4.30781342e-04 -1.30941250e-03
-4.62476422e-04 4.57466872e-04 -1.33549411e-03
-2.28139556e-04 4.62819032e-04 -1.38407449e-03
-3.11631000e-04 5.18650744e-04 -1.37629312e-03
-2.40810218e-04 5.52974140e-04 -1.38969386e-03
-1.29636170e-04 3.45035273e-04 -1.37722511e-03
1.66909647e-04 4.89816077e-04 -1.40619339e-03
2.42732859e-04 5.17436073e-04 -1.40635791e-03
1.06444117e-04 3.00914016e-04 -1.37535512e-03
1.95900213e-04 7.67033276e-04 -1.40290065e-03
3.00959386e-04 6.36370801e-04 -1.40396360e-03
4.65544249e-04 4.81834175e-04 -1.34641372e-03
6.25918771e-04 3.70159816e-04 -1.25205210e-03
7.54667189e-04 4.06203032e-04 -1.18918475e-03
9.14027017e-04 4.81235128e-04 -1.09504095e-03
-1.17441526e-03 5.60581430e-04 -8.14271117e-04
-1.16094852e-03 4.73722956e-04 -8.26195771e-04
-1.03243413e-03 7.02292356e-04 -9.79300158e-04
-9.00712191e-04 6.19332118e-04 -1.09963738e-03
-7.75006804e-04 6.30838026e-04 -1.19229983e-03
-6.21135798e-04 5.56917313e-04 -1.28327827e-03
-5.44905528e-04 5.11971907e-04 -1.31414389e-03
-3.85986226e-04 4.83873493e-04 -1.35749197e-03
-4.68041099e-04 5.38366883e-04 -1.34109798e-03
-3.92457726e-04 5.68815517e-04 -1.36125158e-03
-1.67873063e-04 6.00596610e-04 -1.40100308e-03
-5.37362732e-07 6.03576042e-04 -1.41582619e-03
7.69471026e-05 5.48039309e-04 -1.41441367e-03
1.57669038e-04 5.70928095e-04 -1.41657889e-03
1.63964864e-04 6.55123839e-04 -1.41938155e-03
4.96092366e-04 5.56849835e-04 -1.34267307e-03
4.56786235e-04 6.41074972e-04 -1.35888155e-03
5.54194521e-04 3.82873918e-04 -1.29036989e-03
5.41481929e-04 4.66325587e-04 -1.30967095e-03
8.51659027e-04 5.03637058e-04 -1.14572985e-03
8.10609004e-04 5.70229042e-04 -1.17755369e-03
-1.20144534e-03 7.15555251e-04 -7.58225267e-04
-1.13656823e-03 6.12910466e-04 -8.75680484e-04
-1.08844607e-03 6.58185859e-04 -9.29659273e-04
-9.58127883e-04 5.83377590e-04 -1.05555032e-03
-6.99028953e-04 5.95777171e-04 -1.24268118e-03
-5.49429414e-04 5.93166527e-04 -1.31328700e-03
-5.65121712e-04 6.70071629e-04 -1.30428681e-03
-4.73968373e-04 6.20430386e-04 -1.33998394e-03
-4.04334333e-04 6.56780494e-04 -1.35942615e-03
-3.21601414e-04 6.05359266e-04 -1.37785350e-03
-2.49637417e-04 6.43820447e-04 -1.39158084e-03
-9.17333037e-05 6.41608077e-04 -1.41165359e-03
-1.96981235e-05 6.85432697e-04 -1.41818047e-03
8.57939635e-05 6.31668218e-04 -1.42075162e-03
1.27531854e-04 7.32312526e-04 -1.41603456e-03
3.76759025e-04 6.35987395e-04 -1.38580767e-03
3.13478811e-04 7.14846267e-04 -1.39239091e-03
5.32687527e-04 6.30719019e-04 -1.32898125e-03
6.16985706e-04 4.56297460e-04 -1.27271873e-03
7.75760838e-04 4.93866303e-04 -1.19335207e-03
7.81342927e-04 6.60640910e-04 -1.19235797e-03
-1.16064803e-03 6.74354357e-04 -8.34353790e-04
-1.11556896e-03 7.19425027e-04 -8.84126856e-04
-1.06347499e-03 7.60909807e-04 -9.31609223e-04
-7.83126242e-04 7.12127976e-04 -1.17573034e-03
-7.10975013e-04 6.76520364e-04 -1.22795407e-03
-6.35496235e-04 6.38153514e-04 -1.27398248e-03
-5.74783295e-04 7.52303724e-04 -1.29125281e-03
-4.94520859e-04 6.98934332e-04 -1.33072474e-03
-4.23122922e-04 7.39719792e-04 -1.34859973e-03
-3.32653804e-04 6.90362281e-04 -1.37619882e-03
-2.61652086e-04 7.28711960e-04 -1.38597583e-03
-1.77958772e-04 6.85969798e-04 -1.39995330e-03
-1.02154354e-04 7.22057236e-04 -1.40805743e-03
-2.84948959e-05 7.67458056e-04 -1.40909992e-03
5.37993193e-05 7.03554060e-04 -1.42075067e-03
2.71725442e-04 7.86455778e-04 -1.38447509e-03
3.03668274e-04 8.60412272e-04 -1.35463390e-03
3.99297081e-04 7.14096891e-04 -1.36945869e-03
5.70000707e-04 5.43294552e-04 -1.30781119e-03
6.90311903e-04 4.36031896e-04 -1.23192338e-03
7.43294683e-04 5.91130796e-04 -1.21959706e-03
-1.15853036e-03 7.59256827e-04 -8.12675902e-04
-1.05363334e-03 8.46932059e-04 -9.11209811e-04
-9.72910493e-04 7.46674944e-04 -1.02358886e-03
-8.43659417e-04 6.67001705e-04 -1.13689137e-03
-7.98179950e-04 7.91911081e-04 -1.14906534e-03
-6.44709428e-04 7.20105774e-04 -1.25973339e-03
-6.57954233e-04 7.97040397e-04 -1.23925405e-03
-5.01294330e-04 7.79654495e-04 -1.31801201e-03
-4.32440685e-04 8.23288625e-04 -1.33047045e-03
-3.50059021e-04 7.71356699e-04 -1.36361515e-03
-2.74346943e-04 8.09056875e-04 -1.37361770e-03
-1.84924695e-04 7.69022830e-04 -1.39263468e-03
-1.09613222e-04 8.04736014e-04 -1.39716658e-03
-3.78797840e-05 8.50314775e-04 -1.39230193e-03
5.28213342e-05 7.86533471e-04 -1.40891239e-03
2.14410777e-04 8.51811352e-04 -1.37459144e-03
3.89168412e-04 8.67957134e-04 -1.33115313e-03
3.56965245e-04 7.90386328e-04 -1.36412806e-03
6.05188937e-04 6.26421952e-04 -1.29448205e-03
7.10535048e-04 5.16214113e-04 -1.23434393e-03
7.41378413e-04 7.50973505e-04 -1.20189816e-03
-1.10836813e-03 8.04752787e-04 -8.62386136e-04
-1.04300375e-03 9.28675946e-04 -8.81829358e-04
[...]
POINT_DATA 20213
SCALARS pressure double 1
LOOKUP_TABLE default
0.00000000e+00
0.00000000e+00
0.00000000e+00
1.17587193e+03
0.00000000e+00
1.25898008e+03
0.00000000e+00
0.00000000e+00
4.74716274e+02
8.31352244e+02
9.87703595e+02
4.84322532e+02
1.41025672e+03
0.00000000e+00
9.92245127e+02
9.63087146e+02
2.24305516e+03
0.00000000e+00
1.14520155e+03
1.08575395e+03
8.69240939e+02
0.00000000e+00
0.00000000e+00
8.25311487e+02
1.27551781e+03
1.18102977e+03
1.19902151e+03
1.04927611e+03
0.00000000e+00
0.00000000e+00
0.00000000e+00
1.06883366e+03
1.08878553e+03
8.79037851e+02
1.05972144e+03
9.91385234e+02
9.23591426e+02
1.04486987e+03
8.46888874e+02
9.60762811e+02
1.01653342e+03
7.91413727e+02
0.00000000e+00
0.00000000e+00
9.96908658e+02
8.87049694e+02
1.10642048e+03
1.30523859e+03
0.00000000e+00
0.00000000e+00
0.00000000e+00
0.00000000e+00
0.00000000e+00
1.13038824e+03
0.00000000e+00
9.55768603e+02
0.00000000e+00
0.00000000e+00
0.00000000e+00
0.00000000e+00
0.00000000e+00
1.02594043e+03
8.46534080e+02
0.00000000e+00
8.27040902e+02
1.08737440e+03
1.29993181e+03
1.15754291e+03
0.00000000e+00
0.00000000e+00
0.00000000e+00
0.00000000e+00
0.00000000e+00
0.00000000e+00
9.06405827e+02
1.09834121e+03
1.15545606e+03
0.00000000e+00
1.18655106e+03
0.00000000e+00
1.02118596e+03
1.06453432e+03
1.13417221e+03
1.25529511e+03
0.00000000e+00
1.08619005e+03
9.68877342e+02
9.07338402e+02
0.00000000e+00
7.31924654e+02
0.00000000e+00
0.00000000e+00
1.03562288e+03
8.30156098e+02
7.77172459e+02
1.14063301e+03
8.33076805e+02
7.31703728e+02
1.01933509e+03
0.00000000e+00
0.00000000e+00
0.00000000e+00
1.13491838e+03
1.19405237e+03
0.00000000e+00
6.91448051e+02
0.00000000e+00
9.11351468e+02
1.20047814e+03
7.74881841e+02
0.00000000e+00
0.00000000e+00
0.00000000e+00
9.27294841e+02
7.40917029e+02
0.00000000e+00
1.27581976e+03
1.05218846e+03
8.80637595e+02
0.00000000e+00
0.00000000e+00
0.00000000e+00
0.00000000e+00
0.00000000e+00
9.13727579e+02
0.00000000e+00
6.56769645e+02
6.17929314e+02
0.00000000e+00
0.00000000e+00
7.01592387e+02
0.00000000e+00
0.00000000e+00
5.70642387e+02
0.00000000e+00
5.02634249e+02
0.00000000e+00
0.00000000e+00
9.04129774e+02
9.94319312e+02
0.00000000e+00
6.65434106e+02
0.00000000e+00
0.00000000e+00
0.00000000e+00
8.29188609e+02
8.02592544e+02
0.00000000e+00
0.00000000e+00
0.00000000e+00
1.13665577e+03
0.00000000e+00
0.00000000e+00
0.00000000e+00
0.00000000e+00
0.00000000e+00
5.64192591e+02
0.00000000e+00
7.90032758e+02
0.00000000e+00
7.08339126e+02
0.00000000e+00
0.00000000e+00
0.00000000e+00
6.51269563e+02
0.00000000e+00
0.00000000e+00
7.52459398e+02
0.00000000e+00
7.26293919e+02
6.29939788e+02
0.00000000e+00
0.00000000e+00
0.00000000e+00
0.00000000e+00
0.00000000e+00
0.00000000e+00
0.00000000e+00
0.00000000e+00
7.35248521e+02
7.88690467e+02
7.01729538e+02
0.00000000e+00
0.00000000e+00
5.56479459e+02
4.88401334e+02
0.00000000e+00
0.00000000e+00
9.01192655e+02
6.78541923e+02
0.00000000e+00
0.00000000e+00
0.00000000e+00
0.00000000e+00
0.00000000e+00
0.00000000e+00
0.00000000e+00
0.00000000e+00
0.00000000e+00
0.00000000e+00
0.00000000e+00
6.83164581e+02
7.19807845e+02
0.00000000e+00
0.00000000e+00
6.45710303e+02
0.00000000e+00
7.94266524e+02
8.02743637e+02
0.00000000e+00
0.00000000e+00
0.00000000e+00
0.00000000e+00
0.00000000e+00
4.10516497e+02
0.00000000e+00
0.00000000e+00
0.00000000e+00
0.00000000e+00
0.00000000e+00
8.47767238e+02
0.00000000e+00
0.00000000e+00
0.00000000e+00
6.92519177e+02
5.62168336e+02
0.00000000e+00
0.00000000e+00
7.87879128e+02
0.00000000e+00
0.00000000e+00
5.66025448e+02
0.00000000e+00
0.00000000e+00
0.00000000e+00
0.00000000e+00
0.00000000e+00
0.00000000e+00
0.00000000e+00
0.00000000e+00
0.00000000e+00
0.00000000e+00
0.00000000e+00
0.00000000e+00
6.35383833e+02
6.26419427e+02
0.00000000e+00
9.01552355e+02
0.00000000e+00
8.75252755e+02
0.00000000e+00
9.61494165e+02
0.00000000e+00
0.00000000e+00
0.00000000e+00
0.00000000e+00
4.68042199e+02
0.00000000e+00
6.62710090e+02
0.00000000e+00
7.24738519e+02
0.00000000e+00
0.00000000e+00
0.00000000e+00
0.00000000e+00
0.00000000e+00
0.00000000e+00
0.00000000e+00
0.00000000e+00
8.97586542e+02
9.63333825e+02
0.00000000e+00
6.81155285e+02
0.00000000e+00
0.00000000e+00
0.00000000e+00
0.00000000e+00
6.92543589e+02
9.47947029e+02
8.79378979e+02
1.05300866e+03
0.00000000e+00
0.00000000e+00
0.00000000e+00
0.00000000e+00
0.00000000e+00
7.27894131e+02
0.00000000e+00
0.00000000e+00
0.00000000e+00
9.57495592e+02
0.00000000e+00
0.00000000e+00
1.03865511e+03
0.00000000e+00
7.06599172e+02
0.00000000e+00
0.00000000e+00
0.00000000e+00
7.93058171e+02
1.15579676e+03
8.28645283e+02
0.00000000e+00
0.00000000e+00
0.00000000e+00
6.94994726e+02
8.42177287e+02
8.31773362e+02
0.00000000e+00
0.00000000e+00
9.14379242e+02
1.04746553e+03
9.63500601e+02
0.00000000e+00
0.00000000e+00
0.00000000e+00
9.42755907e+02
0.00000000e+00
6.83585437e+02
0.00000000e+00
9.86986629e+02
1.03186745e+03
1.01887566e+03
0.00000000e+00
0.00000000e+00
0.00000000e+00
5.50972466e+02
9.52786572e+02
9.50571146e+02
0.00000000e+00
0.00000000e+00
0.00000000e+00
0.00000000e+00
9.01920069e+02
0.00000000e+00
6.55343937e+02
1.09646443e+03
7.26376633e+02
0.00000000e+00
9.07160864e+02
1.11928985e+03
0.00000000e+00
1.01271674e+03
0.00000000e+00
6.30600304e+02
0.00000000e+00
0.00000000e+00
0.00000000e+00
8.92200429e+02
9.94092400e+02
0.00000000e+00
0.00000000e+00
0.00000000e+00
1.10553793e+03
1.05000464e+03
9.08216549e+02
0.00000000e+00
1.16523609e+03
0.00000000e+00
0.00000000e+00
0.00000000e+00
9.85297651e+02
1.32148805e+03
1.30111138e+03
0.00000000e+00
9.10547162e+02
8.05259832e+02
0.00000000e+00
0.00000000e+00
9.68045025e+02
8.91514414e+02
0.00000000e+00
0.00000000e+00
0.00000000e+00
1.06953407e+03
1.16046425e+03
1.04438721e+03
7.02138484e+02
1.20248344e+03
1.01052935e+03
0.00000000e+00
0.00000000e+00
0.00000000e+00
1.39173012e+03
1.17123534e+03
1.30820181e+03
0.00000000e+00
0.00000000e+00
0.00000000e+00
7.36777671e+02
8.98452394e+02
8.31592776e+02
0.00000000e+00
0.00000000e+00
0.00000000e+00
1.16667166e+03
1.10292981e+03
7.58483306e+02
0.00000000e+00
0.00000000e+00
0.00000000e+00
0.00000000e+00
0.00000000e+00
1.09005283e+03
1.21975256e+03
1.34214382e+03
1.12461098e+03
1.00724874e+03
0.00000000e+00
0.00000000e+00
0.00000000e+00
7.76777654e+02
7.79426078e+02
9.37610336e+02
9.44028778e+02
9.77858133e+02
1.08655716e+03
1.02455622e+03
0.00000000e+00
5.44689524e+02
0.00000000e+00
7.36126165e+02
0.00000000e+00
7.14906549e+02
1.02354569e+03
1.41069270e+03
1.22784687e+03
0.00000000e+00
1.25849583e+03
1.11527216e+03
9.40051575e+02
8.59329836e+02
8.36465635e+02
0.00000000e+00
8.05271903e+02
0.00000000e+00
0.00000000e+00
9.90855094e+02
0.00000000e+00
0.00000000e+00
0.00000000e+00
8.21869547e+02
6.94626136e+02
9.74050986e+02
0.00000000e+00
0.00000000e+00
0.00000000e+00
1.90753513e+03
8.36600554e+02
0.00000000e+00
1.31289702e+03
1.67442072e+03
1.98332155e+03
1.10136010e+03
1.12297613e+03
1.07402869e+03
1.59994064e+03
0.00000000e+00
1.05873440e+03
1.05946594e+03
0.00000000e+00
1.13073294e+03
0.00000000e+00
1.51756062e+03
1.14205373e+03
2.19343623e+03
9.55763025e+02
1.27805729e+03
1.19054885e+03
1.35339348e+03
1.12060123e+03
1.61927884e+03
1.65452180e+03
2.25817553e+03
1.21397973e+03
2.10685488e+03
2.05707877e+03
1.59428953e+03
1.37442123e+03
1.33104752e+03
1.72518022e+03
1.34549447e+03
1.09810417e+03
0.00000000e+00
1.29380575e+03
1.42313247e+03
1.80463615e+03
1.26069480e+03
3.72671632e+02
2.11454381e+03
0.00000000e+00
6.86589397e+02
5.47597616e+02
7.25583158e+02
8.10175700e+02
0.00000000e+00
1.05470414e+03
1.75746933e+03
1.06287485e+03
1.27612464e+03
7.58499610e+02
1.43622798e+03
1.09186105e+03
0.00000000e+00
5.31689236e+02
9.30303453e+02
2.29952299e+03
1.23481609e+03
7.54554675e+02
1.57517929e+03
1.15206554e+03
1.27688397e+03
4.10855360e+02
1.07568240e+03
1.25870303e+03
1.64446457e+03
1.96162823e+03
1.27987720e+03
1.14569701e+03
1.02897069e+03
1.83089310e+03
1.92773174e+03
1.22564666e+03
2.04152099e+03
8.03839423e+02
7.21115576e+02
1.24052695e+03
2.21688765e+03
2.00723346e+03
2.18651079e+03
1.87639943e+03
2.25983378e+03
8.41031240e+02
7.46258427e+02
1.75115138e+03
1.97833861e+03
2.02026663e+03
1.00441234e+03
9.60348565e+02
8.74611480e+02
2.14890950e+03
7.89205871e+02
1.29282337e+03
1.45739821e+03
7.49621497e+02
0.00000000e+00
0.00000000e+00
1.73881562e+03
1.03916873e+03
1.27348743e+03
1.79078276e+03
0.00000000e+00
2.29921460e+03
1.32235253e+03
8.87539322e+02
8.83875840e+02
2.11113079e+03
1.00507401e+03
1.80369303e+03
1.48021231e+03
1.24317838e+03
0.00000000e+00
1.31016090e+03
1.23959734e+03
9.43699413e+02
1.65076556e+03
0.00000000e+00
0.00000000e+00
1.38934365e+03
1.46278231e+03
1.79952568e+03
1.82547633e+03
9.26129463e+02
1.91214064e+03
1.52929357e+03
9.35863619e+02
1.84584723e+03
8.52213685e+02
1.64344827e+03
1.74482163e+03
1.24474209e+03
1.29096154e+03
1.72221509e+03
1.31870787e+03
1.04352880e+03
1.13918296e+03
7.42383802e+02
0.00000000e+00
0.00000000e+00
1.05771703e+03
0.00000000e+00
1.42248924e+03
1.43279987e+03
1.79560921e+03
1.60998629e+03
2.21015575e+03
1.90905102e+03
1.98184995e+03
1.43326051e+03
1.08332627e+03
2.10410128e+03
1.25013027e+03
1.80678188e+03
2.11275502e+03
9.14227853e+02
1.16282358e+03
0.00000000e+00
7.81971862e+02
6.57858661e+02
4.67417210e+02
2.29467064e+03
0.00000000e+00
2.11139897e+03
1.27591321e+03
1.66924212e+03
1.40623312e+03
1.88231045e+03
1.57002266e+03
1.12988948e+03
1.48752578e+03
2.21808229e+03
9.54676089e+02
1.73846214e+03
1.05092956e+03
1.19085455e+03
1.83692199e+03
2.11712608e+03
7.82480514e+02
1.11583315e+03
5.62183970e+02
5.72097889e+02
2.33649547e+03
6.53517531e+02
1.35652688e+03
1.38375962e+03
1.09794308e+03
1.08989030e+03
1.36928055e+03
2.00090131e+03
1.13723158e+03
1.15261336e+03
1.10044045e+03
2.00712099e+03
1.15972319e+03
1.04168768e+03
1.19764722e+03
1.22163799e+03
1.13525109e+03
0.00000000e+00
7.10224061e+02
0.00000000e+00
0.00000000e+00
2.02103924e+03
0.00000000e+00
1.31963187e+03
1.34523148e+03
1.38400197e+03
1.30865090e+03
1.74515139e+03
1.70251802e+03
2.07683247e+03
1.25555600e+03
2.14861003e+03
1.25779193e+03
2.04852607e+03
1.06360937e+03
1.15055905e+03
1.77091427e+03
1.59428296e+03
6.35580963e+02
1.54398849e+03
0.00000000e+00
0.00000000e+00
1.29583425e+03
0.00000000e+00
9.41195478e+02
1.05663790e+03
1.31706098e+03
1.34540452e+03
1.10165366e+03
2.03430337e+03
1.65074876e+03
2.11236028e+03
1.41377589e+03
1.63380430e+03
9.37980531e+02
1.84173654e+03
1.09559869e+03
9.99547094e+02
8.70704344e+02
1.00376582e+03
8.16318799e+02
7.97300401e+02
0.00000000e+00
2.08137821e+03
0.00000000e+00
1.81635110e+03
1.80761661e+03
1.32331200e+03
1.35777520e+03
1.93520533e+03
1.54843451e+03
1.29488898e+03
1.55177096e+03
2.18547284e+03
1.13492157e+03
1.89275640e+03
1.26074474e+03
1.17648989e+03
1.19829645e+03
2.15868804e+03
0.00000000e+00
2.20774761e+03
8.62402880e+02
0.00000000e+00
8.83658939e+02
0.00000000e+00
1.61783424e+03
1.13103210e+03
1.35543467e+03
1.41235993e+03
1.56937581e+03
1.97657814e+03
1.30195055e+03
1.38484546e+03
1.35663598e+03
1.21629247e+03
9.56246085e+02
1.01492803e+03
1.15061660e+03
1.36656691e+03
1.54251938e+03
8.20424178e+02
9.36002547e+02
0.00000000e+00
0.00000000e+00
8.75170686e+02
8.19825541e+02
1.34807480e+03
1.71746472e+03
1.29923442e+03
1.74251793e+03
2.15065204e+03
1.98013745e+03
1.15428821e+03
2.14859166e+03
1.06903341e+03
9.90089009e+02
1.09841976e+03
1.37662806e+03
1.56468239e+03
2.14734844e+03
9.01127688e+02
1.09132375e+03
8.17246825e+02
0.00000000e+00
8.46017645e+02
1.03720694e+03
1.29453845e+03
1.06723772e+03
1.18223124e+03
0.00000000e+00
1.17696578e+03
1.21273552e+03
1.43453549e+03
1.31757637e+03
1.45463239e+03
2.10220925e+03
1.26725912e+03
1.03814443e+03
1.05902426e+03
0.00000000e+00
1.90483568e+03
1.00652362e+03
1.37690353e+03
7.40276445e+02
0.00000000e+00
8.93254173e+02
1.25395653e+03
1.69933873e+03
1.10367284e+03
2.29649036e+03
9.09805768e+02
1.06196788e+03
1.45823559e+03
1.89080922e+03
1.01058005e+03
1.11747376e+03
1.07490430e+03
1.42771719e+03
1.32276137e+03
1.29801075e+03
1.21800906e+03
1.25781210e+03
1.05338457e+03
1.93750287e+03
6.56003143e+02
0.00000000e+00
1.06575036e+03
1.06802180e+03
8.64963035e+02
1.77448760e+03
8.26272245e+02
2.03737850e+03
1.36014571e+03
1.21141632e+03
1.51056003e+03
1.07081154e+03
1.19258432e+03
1.14249977e+03
2.14674156e+03
2.10719894e+03
1.28641168e+03
9.67069311e+02
1.28506377e+03
1.51708972e+03
7.63761317e+02
7.37938481e+02
0.00000000e+00
1.01077627e+03
9.80940384e+02
7.58154659e+02
1.02128236e+03
1.81497473e+03
1.27096177e+03
7.99559651e+02
0.00000000e+00
0.00000000e+00
0.00000000e+00
0.00000000e+00
0.00000000e+00
0.00000000e+00
0.00000000e+00
9.27463772e+02
1.35172483e+03
1.15292656e+03
9.94151431e+02
8.23025110e+02
1.49758767e+03
0.00000000e+00
1.08032019e+03
2.16300205e+03
8.60069774e+02
1.30160553e+03
8.59447445e+02
1.43953469e+03
9.54340427e+02
9.23169875e+02
1.21227204e+03
9.75481021e+02
1.98624706e+03
1.23253017e+03
2.03307422e+03
1.14252612e+03
1.21033544e+03
1.15981482e+03
1.11483588e+03
1.26414758e+03
1.51185387e+03
2.22820623e+03
0.00000000e+00
1.00357221e+03
6.96737769e+02
0.00000000e+00
0.00000000e+00
8.56247104e+02
1.12650971e+03
1.38324414e+03
1.39990816e+03
1.01243106e+03
0.00000000e+00
0.00000000e+00
9.28773556e+02
0.00000000e+00
0.00000000e+00
0.00000000e+00
9.02893592e+02
7.66416528e+02
9.63360293e+02
8.69566347e+02
0.00000000e+00
0.00000000e+00
8.57965563e+02
7.45470163e+02
5.91767110e+02
0.00000000e+00
7.91076250e+02
0.00000000e+00
0.00000000e+00
0.00000000e+00
0.00000000e+00
9.84764053e+02
1.12562427e+03
1.27089135e+03
9.80525399e+02
0.00000000e+00
1.27587726e+03
0.00000000e+00
1.13390447e+03
9.05492976e+02
6.66245253e+02
0.00000000e+00
0.00000000e+00
5.81394889e+02
1.28208767e+03
1.41832895e+03
1.24533136e+03
1.11112058e+03
1.02904505e+03
1.27714585e+03
7.71723478e+02
2.19374818e+03
0.00000000e+00
1.21637214e+03
1.25055850e+03
9.75367729e+02
9.50012622e+02
9.33350056e+02
1.80061011e+03
1.93759867e+03
2.03743605e+03
1.40672822e+03
7.29064623e+02
8.72768125e+02
0.00000000e+00
1.24032830e+03
2.05702488e+03
2.39001431e+03
1.86936434e+03
2.24057072e+03
2.28408929e+03
1.04534340e+03
1.16889965e+03
1.98487730e+03
9.24142239e+02
1.45772716e+03
1.39274182e+03
1.33759713e+03
1.45083159e+03
2.17048825e+03
1.20085051e+03
1.05178564e+03
4.43151598e+02
1.71380875e+03
1.32644112e+03
8.69867402e+02
1.16068418e+03
1.86906825e+03
1.00229944e+03
1.86775326e+03
7.97435591e+02
2.02506322e+03
1.29231071e+03
1.21199281e+03
7.05848943e+02
8.09165405e+02
1.60191985e+03
1.69087818e+03
1.12588064e+03
2.04653955e+03
1.64109130e+03
1.47621381e+03
1.84886906e+03
1.33919841e+03
1.90588445e+03
1.16335855e+03
0.00000000e+00
1.44463719e+03
6.82163152e+02
1.10162201e+03
2.01815444e+03
2.10656831e+03
9.45477247e+02
1.53913242e+03
5.07912450e+02
1.28953175e+03
1.77486398e+03
1.10766996e+03
6.99995005e+02
2.09924762e+03
1.31480246e+03
1.14046414e+03
1.85256109e+03
1.15471418e+03
2.32374496e+03
2.07528476e+03
9.86732182e+02
6.82021745e+02
1.41905600e+03
6.70886420e+02
1.42627682e+03
2.39215947e+03
1.65876577e+03
1.15469890e+03
2.02382037e+03
1.08635346e+03
2.19037690e+03
4.78488630e+02
1.42637860e+03
8.90323037e+02
8.05922197e+02
2.21754615e+03
1.95654102e+03
1.61178183e+03
1.08847435e+03
1.70199583e+03
1.27225837e+03
0.00000000e+00
0.00000000e+00
1.55876387e+03
1.58380268e+03
1.79968632e+03
9.53536204e+02
1.34311469e+03
1.31390267e+03
1.67852279e+03
5.48806076e+02
2.26086067e+03
1.03397184e+03
8.68014603e+02
1.24758005e+03
1.12485797e+03
1.98777943e+03
1.28465774e+03
2.16479035e+03
2.14429808e+03
1.63902667e+03
1.04708213e+03
0.00000000e+00
0.00000000e+00
0.00000000e+00
2.23556371e+03
2.26659509e+03
2.16571733e+03
1.99332358e+03
1.35466932e+03
5.84673249e+02
9.93585175e+02
2.02814557e+03
2.20075808e+03
1.61815028e+03
2.04206266e+03
2.11373111e+03
1.98935324e+03
1.27564237e+03
2.16508809e+03
1.93123890e+03
2.14445917e+03
0.00000000e+00
0.00000000e+00
4.76658191e+02
0.00000000e+00
9.73600802e+02
1.16859502e+03
2.19717709e+03
2.00891309e+03
2.17149868e+03
1.56863616e+03
1.87522522e+03
1.36491786e+03
2.24597565e+03
1.68049007e+03
1.78009570e+03
1.07250411e+03
1.67221594e+03
8.53874368e+02
1.16156730e+03
1.89800199e+03
1.25267473e+03
0.00000000e+00
0.00000000e+00
0.00000000e+00
0.00000000e+00
2.25196600e+03
8.92861948e+02
2.17742383e+03
2.11529712e+03
2.34665222e+03
4.93655124e+02
8.83948479e+02
1.75892720e+03
6.22719516e+02
6.90040649e+02
1.80690320e+03
1.21820078e+03
1.80616384e+03
1.22451962e+03
1.46741574e+03
1.16514927e+03
1.22380702e+03
0.00000000e+00
5.87937685e+02
5.75991440e+02
0.00000000e+00
2.18721034e+03
9.04162683e+02
2.24931386e+03
7.80672098e+02
1.78845171e+03
1.38240412e+03
1.90964457e+03
2.14852657e+03
1.44011686e+03
2.12716133e+03
1.05480463e+03
1.64019214e+03
2.03803974e+03
1.06088421e+03
2.23390959e+03
1.11087484e+03
1.83987919e+03
0.00000000e+00
6.10100374e+02
0.00000000e+00
0.00000000e+00
1.87531395e+03
1.22730904e+03
2.10338357e+03
4.72477329e+02
1.58049414e+03
8.40520850e+02
2.11585945e+03
6.96575571e+02
1.20188730e+03
1.43639282e+03
1.50071089e+03
7.27167102e+02
1.37676845e+03
1.45992572e+03
1.48805439e+03
1.47937095e+03
1.31807442e+03
0.00000000e+00
5.24941517e+02
0.00000000e+00
0.00000000e+00
1.64586820e+03
1.08656944e+03
1.11464829e+03
6.92540824e+02
1.78195283e+03
2.29363949e+03
1.07451504e+03
2.20293466e+03
1.44963432e+03
2.21607260e+03
1.11435877e+03
2.13197323e+03
9.12235415e+02
1.41829783e+03
1.10083245e+03
1.46761700e+03
1.12633413e+03
0.00000000e+00
0.00000000e+00
0.00000000e+00
0.00000000e+00
1.72214513e+03
1.35275909e+03
1.70846949e+03
1.70936940e+03
1.71615495e+03
1.81782641e+03
1.86771469e+03
2.21224888e+03
8.20493115e+02
1.68418278e+03
1.59295699e+03
1.97457489e+03
1.05473290e+03
1.23694937e+03
1.12091464e+03
1.87507113e+03
1.07538264e+03
6.15000304e+02
7.13953057e+02
0.00000000e+00
2.17409020e+03
2.18388178e+03
1.97782538e+03
2.27529082e+03
2.27120703e+03
1.41673736e+03
1.43258430e+03
2.18965029e+03
2.09419170e+03
1.75656744e+03
2.15516691e+03
6.23124643e+02
1.05602308e+03
2.05432756e+03
1.99270510e+03
8.46806183e+02
1.89793465e+03
2.15654635e+03
8.06135941e+02
0.00000000e+00
0.00000000e+00
1.62243916e+03
2.11210763e+03
2.11986608e+03
1.59263183e+03
9.76976162e+02
2.25599822e+03
1.37848844e+03
1.87240292e+03
2.00796094e+03
1.20110095e+03
1.80324475e+03
1.38678832e+03
1.49626940e+03
1.89218768e+03
1.70498870e+03
1.46209655e+03
1.98045388e+03
1.51184232e+03
6.29172835e+02
0.00000000e+00
0.00000000e+00
2.22260457e+03
4.72252103e+02
1.55534962e+03
1.01497736e+03
6.62692794e+02
6.38682215e+02
1.49393629e+03
1.86439576e+03
2.01738407e+03
6.95473480e+02
1.53469783e+03
9.63919079e+02
1.27463298e+03
1.10996965e+03
1.19703350e+03
1.18462190e+03
2.14801494e+03
1.23392415e+03
1.48246497e+03
0.00000000e+00
1.13639381e+03
1.03414038e+03
1.72110438e+03
1.06112755e+03
6.15493562e+02
2.21009450e+03
2.23575698e+03
1.81293174e+03
1.07223070e+03
8.07606933e+02
1.21352152e+03
1.22593248e+03
1.11451730e+03
1.32646568e+03
1.82280935e+03
1.49069016e+03
2.13922830e+03
2.09464100e+03
1.87749767e+03
1.05805570e+03
0.00000000e+00
1.17541157e+03
1.07308445e+03
2.15263363e+03
2.13683378e+03
1.60844996e+03
1.09738965e+03
1.48606930e+03
2.19328268e+03
1.39030020e+03
1.53716694e+03
7.54535182e+02
1.46140905e+03
1.42620497e+03
1.43581282e+03
1.56223419e+03
2.15968125e+03
1.91911413e+03
1.61634183e+03
1.29213222e+03
1.86090012e+03
0.00000000e+00
1.13545226e+03
1.04715256e+03
9.88589292e+02
2.04539984e+03
2.01141854e+03
2.09373797e+03
1.42716400e+03
9.24847279e+02
0.00000000e+00
1.10799490e+03
8.56615098e+02
1.15058026e+03
9.29844060e+02
9.58620529e+02
1.44313805e+03
9.26489661e+02
1.52182786e+03
7.55214882e+02
2.18509739e+03
1.06644817e+03
6.12930458e+02
1.00639140e+03
0.00000000e+00
0.00000000e+00
5.81004514e+02
0.00000000e+00
1.39014367e+03
0.00000000e+00
1.51112945e+03
1.22880706e+03
0.00000000e+00
1.05516694e+03
1.09658547e+03
1.01939966e+03
0.00000000e+00
9.05390809e+02
9.56542131e+02
0.00000000e+00
0.00000000e+00
5.78170737e+02
0.00000000e+00
0.00000000e+00
7.36205404e+02
5.31285220e+02
0.00000000e+00
2.30193608e+03
1.15343704e+03
1.36610592e+03