# vtk DataFile Version 3.0
MPS 3D Simulation Step 9600
ASCII
DATASET UNSTRUCTURED_GRID
POINTS 20213 double
-1.20597527e-03 3.62292673e-04 -7.46844297e-04
-1.06344901e-03 1.52689942e-04 -8.14102245e-04
-9.80373197e-04 3.02932696e-04 -9.88389112e-04
-9.26410300e-04 3.31560838e-04 -1.04305644e-03
-8.92754532e-04 1.66071925e-04 -9.98862476e-04
-8.69282244e-04 3.75612102e-04 -1.09879466e-03
-6.58572821e-04 2.46448403e-04 -1.19779046e-03
-5.28132243e-04 2.38484214e-04 -1.25914373e-03
-4.85617078e-04 4.76106806e-04 -1.21108441e-03
-3.87044852e-04 8.71760830e-04 -1.06760453e-03
-2.00995313e-04 9.05804389e-04 -1.00610184e-03
-3.91558837e-04 9.80454060e-04 -1.13790138e-03
-8.56862759e-05 7.50881206e-04 -1.02126959e-03
-1.02181448e-04 2.21275673e-04 -1.36268113e-03
1.16234699e-05 2.32041815e-04 -1.37306936e-03
5.13365059e-04 1.40496976e-04 -1.19865879e-03
1.49090605e-04 7.69123470e-04 -6.12838973e-04
4.57552970e-04 2.78172694e-04 -1.30075616e-03
5.20103318e-04 8.59670672e-04 -1.05323867e-03
7.34138718e-04 9.60147670e-04 -8.35248618e-04
1.12705445e-03 7.39347627e-04 -6.56928125e-04
-1.17337132e-03 2.85237878e-04 -7.60392894e-04
-1.11795526e-03 2.47675020e-04 -8.17023937e-04
-1.04607891e-03 3.52223157e-04 -9.41016924e-04
-9.34232906e-04 4.19540409e-04 -1.05342347e-03
-9.04382354e-04 5.42333389e-04 -1.08909738e-03
-1.01020809e-03 4.67322414e-04 -9.92951922e-04
-8.12270077e-04 4.16810720e-04 -1.14695108e-03
-6.12000395e-04 3.75621023e-04 -1.25936699e-03
-3.94098101e-04 2.53067465e-04 -1.31193225e-03
-4.23894873e-04 1.21140092e-04 -1.22334728e-03
-1.67036669e-04 2.75847588e-04 -1.37445130e-03
1.42928882e-04 1.94990585e-04 -1.35018958e-03
1.55502890e-04 4.05040798e-04 -1.40277023e-03
2.25395484e-04 3.47959854e-04 -1.38591561e-03
2.73314217e-04 2.84686580e-04 -1.35780090e-03
4.67257245e-04 1.88999587e-04 -1.25181629e-03
4.20746072e-04 3.43456692e-04 -1.33264959e-03
4.03310368e-04 8.44519280e-04 -1.22441716e-03
3.63323160e-04 2.82700181e-04 -1.33334495e-03
5.20953287e-04 2.47912304e-04 -1.26787333e-03
8.23039900e-04 1.53739539e-04 -1.05760256e-03
-1.14499525e-03 3.32955288e-04 -8.23128112e-04
-1.10771783e-03 3.86990118e-04 -8.81068000e-04
-1.08989309e-03 5.88890876e-04 -9.08661043e-04
-8.59389343e-04 2.93428094e-04 -1.08437744e-03
-9.92262826e-04 3.87325553e-04 -9.99969760e-04
-8.79732039e-04 4.63310471e-04 -1.10060932e-03
-5.98135985e-04 2.84714704e-04 -1.24268781e-03
-7.32347200e-04 2.87408276e-04 -1.16901298e-03
-4.66208144e-04 3.62815001e-04 -1.31599014e-03
-3.18808491e-04 2.24705334e-04 -1.32335909e-03
-1.73311139e-04 3.94140023e-04 -1.39997856e-03
-5.89141425e-05 2.79637973e-04 -1.38633995e-03
8.98518716e-05 4.61395799e-04 -1.41291509e-03
2.78623593e-04 4.11523519e-04 -1.38353292e-03
2.38305071e-04 2.09663337e-04 -1.33776120e-03
4.10688832e-04 4.93878922e-04 -1.35463345e-03
4.65968492e-04 4.20248966e-04 -1.33130676e-03
3.78975718e-04 4.14232275e-04 -1.35865672e-03
6.59817597e-04 3.28654173e-04 -1.23588866e-03
7.46979024e-04 2.06042208e-04 -1.14319906e-03
7.52135680e-04 1.18888221e-04 -1.07377715e-03
-1.21927598e-03 4.50723880e-04 -7.38990815e-04
-1.13688456e-03 4.59280877e-04 -8.54170693e-04
-1.08959578e-03 5.03038061e-04 -9.10021320e-04
-9.56855306e-04 5.01642484e-04 -1.04263281e-03
-8.22173555e-04 5.04833354e-04 -1.14902539e-03
-7.40024294e-04 3.69484855e-04 -1.18985407e-03
-6.70156543e-04 3.26677079e-04 -1.21919472e-03
-3.84931901e-04 3.27255678e-04 -1.33617075e-03
-3.14936759e-04 3.84594532e-04 -1.36776484e-03
-3.85256539e-04 1.76904848e-04 -1.28531583e-03
-9.28654211e-05 4.36240923e-04 -1.41166952e-03
-1.75180911e-04 1.92347399e-04 -1.33780713e-03
-4.84816314e-05 3.67358770e-04 -1.40855927e-03
1.84062248e-05 3.11632567e-04 -1.39807696e-03
2.17753901e-04 4.57557667e-04 -1.39773240e-03
3.26540406e-04 3.51092061e-04 -1.36237379e-03
4.21518639e-04 5.77087101e-04 -1.35692712e-03
6.85310047e-04 4.06832125e-04 -1.23976318e-03
7.09763598e-04 2.70520964e-04 -1.18963937e-03
7.87717219e-04 2.86038517e-04 -1.14918204e-03
8.50148167e-04 3.26418348e-04 -1.11886959e-03
-1.22915837e-03 5.39578235e-04 -7.18431363e-04
-1.03908486e-03 6.24367868e-04 -9.66052363e-04
-1.06135136e-03 4.34185901e-04 -9.36901707e-04
-8.49975720e-04 5.81608375e-04 -1.13462196e-03
-6.91915326e-04 5.04518966e-04 -1.23396342e-03
-7.53277540e-04 4.56129323e-04 -1.19085934e-03
-3.93195903e-04 4.10438646e-04 -1.34634639e-03
-3.21763976e-04 4.72048530e-04 -1.37303091e-03
-2.31770728e-04 3.33955898e-04 -1.37826956e-03
-1.65592424e-04 4.78685135e-04 -1.40887823e-03
-9.93780313e-05 5.34300138e-04 -1.41866381e-03
-2.38553770e-04 2.47904902e-04 -1.34979201e-03
-2.77834342e-05 4.89263170e-04 -1.41936152e-03
1.93900618e-04 5.90617672e-04 -1.40342630e-03
1.50848000e-05 4.20137030e-04 -1.41483164e-03
3.24475628e-04 4.79061462e-04 -1.37719143e-03
3.42087166e-04 5.67026263e-04 -1.37784844e-03
5.74110276e-04 3.07244144e-04 -1.26691786e-03
7.40145014e-04 3.46271626e-04 -1.19738824e-03
8.06956968e-04 3.80569155e-04 -1.16229168e-03
8.26957802e-04 4.64203455e-04 -1.15482415e-03
-1.22577979e-03 6.31742388e-04 -7.19028304e-04
-1.13972192e-03 5.45903252e-04 -8.49896573e-04
-9.88420419e-04 6.65179324e-04 -1.01600405e-03
-1.03498135e-03 5.37935211e-04 -9.67714407e-04
-7.61863550e-04 5.44211557e-04 -1.19380196e-03
-6.17254968e-04 4.60821072e-04 -1.26840977e-03
-5.40768503e-04 4.13339647e-04 -1.29606242e-03
-4.67715992e-04 4.47765774e-04 -1.32595416e-03
-2.45437234e-04 4.27586892e-04 -1.38788925e-03
-3.24111718e-04 5.53800667e-04 -1.37706950e-03
-2.44157424e-04 5.12815996e-04 -1.39587610e-03
-1.21410820e-04 3.34541624e-04 -1.39647773e-03
1.56214302e-04 5.09592144e-04 -1.40817926e-03
2.57801396e-04 5.32627790e-04 -1.39319728e-03
9.19185224e-05 2.58920794e-04 -1.37932662e-03
1.76265377e-04 7.52860436e-04 -1.39818780e-03
2.74944865e-04 6.19308182e-04 -1.38982824e-03
4.90279731e-04 5.03460150e-04 -1.33178618e-03
6.02700977e-04 3.81228756e-04 -1.27458802e-03
7.55760051e-04 4.37777141e-04 -1.20117842e-03
8.99645298e-04 4.83710844e-04 -1.09949274e-03
-1.18768499e-03 5.87899190e-04 -7.81309125e-04
-1.18452804e-03 5.04073032e-04 -7.91195241e-04
-1.04533892e-03 7.10037933e-04 -9.52895917e-04
-9.29633689e-04 6.20567186e-04 -1.07316153e-03
-7.90863023e-04 6.19255244e-04 -1.17673153e-03
-6.27758416e-04 5.46287315e-04 -1.26909771e-03
-5.48841665e-04 4.98956259e-04 -1.30076001e-03
-3.98561157e-04 4.98913032e-04 -1.35170869e-03
-4.77739343e-04 5.35221143e-04 -1.32666736e-03
-4.08742864e-04 5.85404359e-04 -1.35140799e-03
-1.82160912e-04 5.67833866e-04 -1.40876485e-03
-2.96687144e-05 5.83950924e-04 -1.42267683e-03
4.14496829e-05 5.30567934e-04 -1.41945060e-03
1.08471894e-04 5.76613927e-04 -1.41524806e-03
1.26652941e-04 6.59630835e-04 -1.41116082e-03
5.00726499e-04 5.87512893e-04 -1.33283055e-03
4.35770205e-04 6.60111785e-04 -1.35566330e-03
5.46794713e-04 4.28645135e-04 -1.30349729e-03
5.68546659e-04 5.10890152e-04 -1.30400534e-03
8.50862491e-04 5.42496916e-04 -1.14104620e-03
7.94192434e-04 6.03139858e-04 -1.17858240e-03
-1.23686547e-03 7.07174053e-04 -6.92053143e-04
-1.14354132e-03 6.30786395e-04 -8.40678251e-04
-1.09658417e-03 6.72209008e-04 -8.98012750e-04
-9.81004159e-04 5.78585973e-04 -1.02278943e-03
-7.00493653e-04 5.90521949e-04 -1.23216993e-03
-5.58615193e-04 5.82769525e-04 -1.30132666e-03
-5.69440014e-04 6.64100466e-04 -1.29505602e-03
-4.88735649e-04 6.22912282e-04 -1.32704782e-03
-4.21369811e-04 6.69940504e-04 -1.34887915e-03
-3.38428625e-04 6.36677186e-04 -1.37339187e-03
-2.58209792e-04 6.04578208e-04 -1.39463498e-03
-1.16969288e-04 6.20586408e-04 -1.41821088e-03
-4.84105275e-05 6.67915171e-04 -1.42140489e-03
4.22321384e-05 6.30334175e-04 -1.41943463e-03
9.68584058e-05 7.34558777e-04 -1.40910252e-03
3.56617803e-04 6.50772089e-04 -1.37609119e-03
2.91502175e-04 7.09197778e-04 -1.38412846e-03
5.11430926e-04 6.72035738e-04 -1.33035386e-03
6.28334577e-04 4.64256280e-04 -1.27265654e-03
7.72868083e-04 5.24115406e-04 -1.19512472e-03
7.69894801e-04 7.25476325e-04 -1.18057644e-03
-1.18574638e-03 6.81218403e-04 -7.75146023e-04
-1.13973000e-03 7.20245127e-04 -8.34304260e-04
-1.09164982e-03 7.59930725e-04 -8.94702827e-04
-8.07763203e-04 6.99786017e-04 -1.16092305e-03
-7.32975118e-04 6.63095044e-04 -1.21194855e-03
-6.38444041e-04 6.30664810e-04 -1.26431971e-03
-5.97372606e-04 7.36291917e-04 -1.27290142e-03
-5.04451918e-04 7.08144121e-04 -1.31741132e-03
-4.37449457e-04 7.51256192e-04 -1.33729894e-03
-3.53197819e-04 7.20351656e-04 -1.36848143e-03
-2.73524926e-04 6.94708929e-04 -1.39022069e-03
-1.93738927e-04 6.59261280e-04 -1.40706427e-03
-1.26730532e-04 7.10776951e-04 -1.41174259e-03
-5.65161337e-05 7.56398174e-04 -1.40873979e-03
1.99700831e-05 7.10408557e-04 -1.41762489e-03
2.50366956e-04 7.76952371e-04 -1.38423260e-03
2.64538688e-04 8.62670387e-04 -1.36075528e-03
3.72688770e-04 7.34770922e-04 -1.36637910e-03
5.79240208e-04 5.94187112e-04 -1.30313123e-03
7.01197864e-04 4.94858194e-04 -1.23612773e-03
7.37889617e-04 6.57381256e-04 -1.21122221e-03
-1.19640815e-03 7.57336762e-04 -7.46086831e-04
-1.10163296e-03 8.31403578e-04 -8.60248010e-04
-9.89820561e-04 7.49308754e-04 -1.00781580e-03
-8.67947084e-04 6.59275408e-04 -1.12050516e-03
-8.17021432e-04 7.81059949e-04 -1.14175958e-03
-6.67554000e-04 7.03325694e-04 -1.24232972e-03
-6.78346713e-04 7.83951206e-04 -1.22300491e-03
-5.32466729e-04 7.83622008e-04 -1.29358267e-03
-4.61463851e-04 8.22152264e-04 -1.31353895e-03
-3.67592443e-04 7.94659970e-04 -1.35333879e-03
-2.85898278e-04 7.82741018e-04 -1.37481510e-03
-2.08614733e-04 7.48060238e-04 -1.39748728e-03
-1.43217624e-04 7.96368438e-04 -1.39564512e-03
-7.06037452e-05 8.35199382e-04 -1.39394848e-03
2.18368561e-05 7.93898919e-04 -1.40265610e-03
1.83705731e-04 8.39584401e-04 -1.37870767e-03
3.49977942e-04 8.84277655e-04 -1.33646303e-03
3.27025187e-04 8.04334457e-04 -1.36489831e-03
5.85990204e-04 6.69844562e-04 -1.29942876e-03
7.14983730e-04 5.79421819e-04 -1.23076659e-03
7.19472004e-04 7.91049056e-04 -1.19974980e-03
-1.15090395e-03 7.93841441e-04 -8.04728679e-04
-1.08457496e-03 9.13759511e-04 -8.44381596e-04
[...]
POINT_DATA 20213
SCALARS pressure double 1
LOOKUP_TABLE default
0.00000000e+00
0.00000000e+00
6.48242413e+02
7.60590835e+02
0.00000000e+00
0.00000000e+00
0.00000000e+00
0.00000000e+00
5.36559019e+02
1.07980584e+03
1.25853242e+03
8.46909296e+02
1.52829163e+03
0.00000000e+00
0.00000000e+00
0.00000000e+00
2.12797716e+03
9.76973247e+02
9.59519721e+02
9.09389593e+02
8.66326104e+02
0.00000000e+00
0.00000000e+00
0.00000000e+00
0.00000000e+00
6.07773501e+02
6.27885481e+02
0.00000000e+00
0.00000000e+00
7.56606322e+02
6.50375951e+02
0.00000000e+00
0.00000000e+00
0.00000000e+00
0.00000000e+00
8.92105936e+02
0.00000000e+00
1.08570547e+03
6.96049939e+02
0.00000000e+00
0.00000000e+00
0.00000000e+00
0.00000000e+00
0.00000000e+00
6.56631413e+02
9.64768659e+02
0.00000000e+00
6.11086002e+02
6.22542774e+02
8.05401604e+02
0.00000000e+00
7.50850241e+02
0.00000000e+00
0.00000000e+00
0.00000000e+00
8.47128618e+02
5.82904296e+02
7.42224256e+02
9.96552097e+02
0.00000000e+00
0.00000000e+00
0.00000000e+00
0.00000000e+00
0.00000000e+00
0.00000000e+00
6.61954533e+02
8.23596504e+02
0.00000000e+00
0.00000000e+00
0.00000000e+00
0.00000000e+00
0.00000000e+00
7.09379291e+02
1.03510328e+03
0.00000000e+00
8.53703489e+02
0.00000000e+00
0.00000000e+00
9.82927776e+02
0.00000000e+00
0.00000000e+00
0.00000000e+00
0.00000000e+00
0.00000000e+00
8.13166580e+02
0.00000000e+00
0.00000000e+00
0.00000000e+00
0.00000000e+00
0.00000000e+00
0.00000000e+00
0.00000000e+00
0.00000000e+00
0.00000000e+00
1.09000981e+03
0.00000000e+00
1.21402954e+03
6.19607916e+02
8.64827225e+02
0.00000000e+00
0.00000000e+00
0.00000000e+00
0.00000000e+00
0.00000000e+00
0.00000000e+00
8.40201422e+02
0.00000000e+00
0.00000000e+00
7.22388063e+02
0.00000000e+00
0.00000000e+00
0.00000000e+00
0.00000000e+00
8.50194335e+02
6.96531606e+02
8.76927780e+02
7.37729539e+02
6.80774293e+02
0.00000000e+00
0.00000000e+00
0.00000000e+00
0.00000000e+00
7.59753717e+02
7.34461477e+02
0.00000000e+00
4.02372263e+02
8.57318907e+02
0.00000000e+00
0.00000000e+00
0.00000000e+00
0.00000000e+00
0.00000000e+00
0.00000000e+00
0.00000000e+00
0.00000000e+00
0.00000000e+00
1.01384367e+03
1.10003297e+03
1.02352759e+03
9.22357921e+02
0.00000000e+00
6.25454937e+02
0.00000000e+00
8.16878693e+02
0.00000000e+00
0.00000000e+00
0.00000000e+00
0.00000000e+00
0.00000000e+00
0.00000000e+00
7.10726145e+02
0.00000000e+00
0.00000000e+00
0.00000000e+00
0.00000000e+00
0.00000000e+00
7.45321027e+02
8.17126595e+02
9.11148709e+02
1.01803180e+03
1.04215062e+03
0.00000000e+00
0.00000000e+00
0.00000000e+00
0.00000000e+00
0.00000000e+00
0.00000000e+00
0.00000000e+00
8.75553248e+02
0.00000000e+00
0.00000000e+00
6.54686817e+02
0.00000000e+00
0.00000000e+00
8.02385350e+02
7.63317538e+02
8.41643227e+02
7.96591759e+02
0.00000000e+00
0.00000000e+00
0.00000000e+00
8.35831935e+02
9.69818880e+02
0.00000000e+00
5.86608530e+02
0.00000000e+00
4.97542664e+02
0.00000000e+00
0.00000000e+00
9.77599770e+02
0.00000000e+00
0.00000000e+00
6.46928644e+02
8.26288419e+02
7.70814172e+02
9.52716267e+02
9.11383163e+02
7.74171673e+02
0.00000000e+00
6.48745479e+02
7.18037055e+02
0.00000000e+00
0.00000000e+00
9.10389862e+02
0.00000000e+00
5.46368001e+02
0.00000000e+00
0.00000000e+00
0.00000000e+00
0.00000000e+00
0.00000000e+00
0.00000000e+00
0.00000000e+00
8.05916911e+02
0.00000000e+00
0.00000000e+00
8.44981559e+02
0.00000000e+00
7.64414990e+02
0.00000000e+00
7.35798709e+02
0.00000000e+00
0.00000000e+00
0.00000000e+00
6.62802856e+02
0.00000000e+00
0.00000000e+00
0.00000000e+00
0.00000000e+00
4.75004424e+02
0.00000000e+00
1.26542887e+03
1.08074145e+03
0.00000000e+00
0.00000000e+00
8.83436528e+02
9.44123536e+02
8.95905705e+02
8.83591394e+02
8.34660524e+02
7.50293326e+02
0.00000000e+00
0.00000000e+00
0.00000000e+00
5.39495920e+02
0.00000000e+00
0.00000000e+00
0.00000000e+00
0.00000000e+00
7.13923891e+02
0.00000000e+00
7.99007967e+02
1.28184213e+03
1.12094674e+03
0.00000000e+00
9.94692514e+02
9.04332381e+02
0.00000000e+00
9.31011941e+02
0.00000000e+00
0.00000000e+00
0.00000000e+00
0.00000000e+00
0.00000000e+00
0.00000000e+00
0.00000000e+00
0.00000000e+00
0.00000000e+00
0.00000000e+00
0.00000000e+00
7.45441535e+02
7.50028461e+02
6.41843588e+02
0.00000000e+00
0.00000000e+00
0.00000000e+00
9.11494102e+02
9.25420563e+02
0.00000000e+00
0.00000000e+00
0.00000000e+00
6.95091426e+02
7.00528360e+02
0.00000000e+00
0.00000000e+00
5.16389957e+02
0.00000000e+00
0.00000000e+00
0.00000000e+00
0.00000000e+00
0.00000000e+00
0.00000000e+00
7.14265035e+02
6.87734125e+02
1.03023860e+03
0.00000000e+00
0.00000000e+00
1.01278883e+03
1.03302109e+03
9.56320617e+02
0.00000000e+00
0.00000000e+00
0.00000000e+00
7.32596074e+02
0.00000000e+00
0.00000000e+00
5.93233079e+02
5.64140361e+02
0.00000000e+00
0.00000000e+00
0.00000000e+00
0.00000000e+00
0.00000000e+00
5.18460316e+02
0.00000000e+00
1.03558656e+03
0.00000000e+00
0.00000000e+00
1.11010311e+03
0.00000000e+00
8.61273976e+02
0.00000000e+00
0.00000000e+00
0.00000000e+00
0.00000000e+00
6.71804366e+02
6.27720856e+02
6.25477439e+02
7.58577839e+02
8.25253878e+02
0.00000000e+00
0.00000000e+00
0.00000000e+00
0.00000000e+00
6.09458183e+02
0.00000000e+00
0.00000000e+00
0.00000000e+00
9.75046418e+02
1.08361674e+03
0.00000000e+00
9.44963889e+02
7.63603762e+02
6.33113703e+02
4.45223920e+02
0.00000000e+00
0.00000000e+00
0.00000000e+00
5.77403851e+02
6.58147950e+02
7.55216909e+02
0.00000000e+00
0.00000000e+00
0.00000000e+00
0.00000000e+00
0.00000000e+00
6.29766415e+02
8.05072148e+02
0.00000000e+00
9.91717089e+02
1.10551736e+03
0.00000000e+00
1.05239827e+03
0.00000000e+00
0.00000000e+00
0.00000000e+00
0.00000000e+00
0.00000000e+00
0.00000000e+00
0.00000000e+00
0.00000000e+00
0.00000000e+00
5.64809011e+02
0.00000000e+00
0.00000000e+00
0.00000000e+00
6.90108873e+02
0.00000000e+00
0.00000000e+00
0.00000000e+00
0.00000000e+00
1.24066138e+03
1.14245521e+03
1.21169937e+03
8.82342934e+02
9.81894617e+02
8.44992095e+02
0.00000000e+00
0.00000000e+00
0.00000000e+00
5.47119164e+02
0.00000000e+00
7.49547928e+02
4.87257531e+02
0.00000000e+00
0.00000000e+00
0.00000000e+00
0.00000000e+00
7.80474727e+02
0.00000000e+00
9.90028567e+02
1.19878152e+03
1.31743907e+03
1.22947211e+03
1.41417145e+03
8.50188563e+02
0.00000000e+00
0.00000000e+00
5.40034972e+02
0.00000000e+00
0.00000000e+00
6.07384127e+02
5.28769186e+02
0.00000000e+00
0.00000000e+00
0.00000000e+00
0.00000000e+00
0.00000000e+00
0.00000000e+00
0.00000000e+00
1.07366235e+03
0.00000000e+00
0.00000000e+00
1.38454835e+03
1.42029330e+03
1.25469803e+03
8.43221592e+02
7.07179795e+02
8.12826340e+02
8.54381113e+02
5.85011845e+02
6.73443626e+02
6.60687954e+02
0.00000000e+00
4.97204728e+02
0.00000000e+00
0.00000000e+00
0.00000000e+00
0.00000000e+00
7.13517365e+02
7.66841478e+02
0.00000000e+00
0.00000000e+00
9.38371170e+02
0.00000000e+00
0.00000000e+00
8.65550151e+02
1.54679906e+03
0.00000000e+00
0.00000000e+00
1.32670541e+03
1.72843943e+03
1.95011672e+03
1.15103925e+03
7.39242429e+02
7.99714684e+02
1.58653035e+03
1.00965053e+03
1.02426914e+03
1.05965297e+03
0.00000000e+00
0.00000000e+00
0.00000000e+00
1.64938684e+03
1.07430171e+03
2.11333148e+03
1.26517690e+03
1.36981704e+03
1.09293097e+03
1.62460364e+03
1.22754014e+03
1.66134692e+03
2.09383781e+03
2.32732253e+03
1.16697702e+03
2.40886723e+03
2.08949877e+03
1.32477043e+03
1.21153083e+03
1.34688567e+03
1.65215317e+03
1.21721239e+03
0.00000000e+00
0.00000000e+00
1.40946640e+03
1.55673148e+03
1.59564625e+03
8.81772682e+02
6.36450103e+02
2.05290212e+03
0.00000000e+00
5.04558457e+02
8.77803576e+02
0.00000000e+00
6.36828090e+02
6.54664747e+02
0.00000000e+00
1.09089524e+03
5.87313310e+02
1.06553621e+03
7.88092169e+02
1.20868014e+03
1.21338963e+03
0.00000000e+00
0.00000000e+00
1.10747048e+03
2.16146304e+03
1.09710165e+03
9.54021252e+02
1.67126668e+03
1.33080782e+03
1.20838525e+03
8.35381633e+02
7.95912805e+02
1.29845584e+03
1.79068118e+03
1.91016466e+03
1.30054252e+03
9.64164961e+02
7.76321211e+02
1.90358842e+03
1.89312995e+03
9.44291086e+02
1.89054370e+03
0.00000000e+00
0.00000000e+00
1.28525321e+03
1.99367704e+03
1.90251164e+03
2.26281310e+03
1.97421568e+03
2.07569465e+03
5.67593763e+02
5.99408438e+02
1.94285031e+03
2.13301436e+03
2.08126789e+03
1.09188273e+03
9.60237962e+02
0.00000000e+00
2.26875178e+03
7.53168106e+02
8.24023945e+02
1.59059440e+03
9.37319520e+02
0.00000000e+00
0.00000000e+00
1.79730839e+03
1.17009951e+03
1.41600218e+03
1.53174133e+03
0.00000000e+00
2.29931520e+03
1.29857725e+03
6.49123332e+02
5.88722422e+02
2.42225797e+03
6.75787670e+02
1.88781685e+03
1.57270938e+03
1.19321955e+03
0.00000000e+00
1.19585638e+03
8.31104089e+02
8.65345801e+02
1.32086524e+03
0.00000000e+00
0.00000000e+00
1.62611779e+03
1.43010291e+03
1.68159840e+03
1.76506980e+03
1.29207931e+03
2.03375485e+03
1.58288700e+03
6.66632259e+02
1.96886893e+03
6.88482922e+02
1.70293275e+03
1.63402858e+03
1.34132795e+03
1.19288031e+03
1.89608719e+03
1.16884598e+03
7.26273312e+02
5.94119803e+02
9.27200869e+02
0.00000000e+00
7.94418105e+02
1.45931837e+03
0.00000000e+00
1.44793400e+03
1.46806096e+03
1.76488930e+03
1.75312906e+03
2.26591811e+03
1.91996683e+03
2.02784830e+03
1.38402942e+03
9.11301440e+02
1.63716141e+03
1.35473238e+03
1.81797013e+03
2.09994372e+03
9.80756859e+02
4.87774928e+02
0.00000000e+00
9.19324958e+02
0.00000000e+00
7.01338661e+02
2.38043679e+03
0.00000000e+00
2.01360096e+03
1.28289323e+03
1.59821648e+03
1.47497855e+03
1.88137757e+03
1.16123867e+03
1.00934139e+03
1.25430399e+03
2.33891233e+03
1.13106318e+03
1.91223840e+03
6.65557088e+02
4.56430484e+02
2.16349684e+03
2.51918305e+03
0.00000000e+00
1.01319623e+03
0.00000000e+00
0.00000000e+00
2.26965022e+03
0.00000000e+00
1.37184024e+03
1.24025495e+03
8.15599577e+02
8.40289130e+02
1.06236145e+03
1.99306268e+03
9.23791371e+02
1.01881949e+03
1.25042120e+03
2.33473015e+03
1.01512393e+03
7.10511826e+02
9.92823070e+02
6.00477148e+02
8.33128670e+02
0.00000000e+00
9.80812499e+02
0.00000000e+00
1.11499316e+03
2.24239226e+03
0.00000000e+00
1.49616216e+03
1.35680145e+03
1.44419444e+03
1.06348269e+03
1.95260487e+03
1.80344196e+03
2.19050943e+03
1.03173474e+03
2.30069104e+03
1.01223896e+03
2.15788230e+03
5.88579215e+02
4.09443558e+02
1.86802536e+03
1.56617437e+03
0.00000000e+00
1.45954491e+03
0.00000000e+00
1.44128028e+03
1.45927481e+03
0.00000000e+00
1.40055200e+03
1.42142647e+03
1.06581946e+03
1.41740029e+03
9.09904121e+02
2.04048113e+03
1.77850502e+03
2.18295055e+03
1.32745108e+03
1.66184954e+03
7.39102437e+02
1.92372772e+03
4.66821379e+02
4.52089540e+02
6.02454450e+02
0.00000000e+00
1.03185550e+03
0.00000000e+00
1.44985680e+03
2.30061020e+03
8.24729339e+02
1.96191838e+03
2.00961427e+03
1.39246273e+03
1.36595068e+03
1.95594006e+03
1.66369674e+03
1.09734924e+03
1.55429412e+03
2.35628791e+03
8.42073709e+02
2.00472986e+03
9.35718318e+02
1.16052679e+03
7.85963598e+02
2.33669422e+03
0.00000000e+00
2.34773492e+03
0.00000000e+00
1.33109505e+03
1.48799852e+03
0.00000000e+00
1.76664380e+03
1.46227022e+03
1.34920591e+03
1.56767144e+03
1.67223305e+03
2.22481455e+03
9.68685851e+02
1.52314766e+03
1.17014639e+03
1.03030327e+03
8.11611488e+02
7.13613236e+02
1.14914308e+03
1.29780133e+03
1.66047608e+03
7.04768372e+02
6.74574760e+02
0.00000000e+00
1.26874843e+03
1.22757614e+03
1.23843937e+03
1.56897274e+03
2.04402681e+03
1.61344441e+03
1.99478137e+03
2.12726090e+03
2.08905349e+03
7.28506061e+02
2.17536302e+03
6.86739480e+02
7.91832781e+02
8.61287364e+02
1.40206325e+03
1.46229166e+03
2.22037793e+03
7.63544292e+02
1.08123863e+03
7.35500787e+02
0.00000000e+00
0.00000000e+00
1.45883767e+03
1.76233459e+03
1.23647362e+03
1.07839263e+03
1.01153644e+03
1.17416506e+03
8.86921812e+02
1.32891620e+03
1.26192992e+03
1.86835855e+03
2.29034487e+03
9.73610279e+02
7.16611882e+02
4.66377068e+02
0.00000000e+00
2.09270577e+03
1.19799197e+03
1.43596682e+03
7.69191726e+02
6.50500470e+02
0.00000000e+00
1.75479491e+03
1.88964821e+03
1.40815995e+03
2.37144484e+03
8.92155984e+02
9.82498747e+02
1.24928797e+03
2.04467346e+03
6.23324825e+02
5.66248266e+02
6.33784931e+02
1.35779176e+03
9.94171938e+02
1.32446971e+03
9.63310960e+02
1.83868260e+03
1.03242499e+03
1.91586069e+03
1.17889868e+03
0.00000000e+00
0.00000000e+00
1.33589619e+03
9.37314412e+02
2.10700666e+03
9.55048021e+02
2.20177699e+03
1.39458042e+03
1.10186216e+03
1.65924933e+03
5.87081906e+02
9.97265288e+02
5.95166060e+02
2.29182727e+03
2.19012363e+03
9.43888828e+02
4.94240803e+02
8.68373093e+02
1.50750071e+03
6.64052292e+02
9.22118397e+02
7.30896906e+02
8.65139226e+02
1.42249079e+03
8.32783585e+02
1.47629750e+03
2.09440637e+03
1.41972459e+03
8.41644639e+02
0.00000000e+00
0.00000000e+00
0.00000000e+00
0.00000000e+00
0.00000000e+00
0.00000000e+00
0.00000000e+00
5.65451727e+02
1.03115839e+03
9.93807821e+02
8.70871155e+02
1.21200947e+03
1.61627175e+03
8.21456624e+02
0.00000000e+00
1.70414161e+03
9.80084186e+02
1.50231055e+03
9.12821770e+02
1.51023520e+03
1.00368898e+03
7.21811565e+02
1.03971893e+03
5.61474070e+02
2.19913780e+03
8.94064430e+02
2.33251067e+03
5.89524859e+02
6.92556709e+02
6.21169733e+02
9.58988594e+02
1.02258739e+03
1.62205172e+03
2.37448644e+03
9.28284685e+02
1.35231969e+03
1.43710270e+03
1.38940247e+03
1.39853127e+03
1.38930794e+03
1.33457419e+03
0.00000000e+00
1.00114247e+03
0.00000000e+00
0.00000000e+00
0.00000000e+00
7.02785158e+02
4.99372376e+02
0.00000000e+00
0.00000000e+00
0.00000000e+00
0.00000000e+00
0.00000000e+00
0.00000000e+00
0.00000000e+00
1.02578311e+03
0.00000000e+00
0.00000000e+00
0.00000000e+00
0.00000000e+00
1.24163873e+03
4.21876133e+02
8.61729437e+02
6.92538306e+02
9.89496402e+02
1.19430860e+03
1.06189658e+03
1.17081636e+03
8.77882752e+02
0.00000000e+00
9.86042187e+02
5.55522676e+02
7.47223421e+02
7.34008382e+02
0.00000000e+00
0.00000000e+00
0.00000000e+00
0.00000000e+00
8.24804126e+02
1.49794115e+03
1.33403915e+03
9.41232448e+02
1.04894988e+03
1.19648086e+03
1.09560471e+03
2.14159057e+03
7.52861794e+02
1.33067296e+03
1.20169061e+03
7.92305450e+02
0.00000000e+00
7.85820013e+02
1.60607605e+03
1.94134540e+03
1.81378465e+03
1.26748527e+03
1.10693757e+03
0.00000000e+00
0.00000000e+00
1.42981793e+03
2.25545656e+03
2.27542197e+03
1.83994754e+03
1.83943205e+03
2.38008382e+03
1.00901037e+03
1.11741477e+03
2.03131020e+03
7.63111069e+02
1.26886267e+03
1.25884585e+03
1.10512008e+03
1.58012175e+03
1.99918995e+03
8.57049680e+02
8.73248741e+02
9.15651292e+02
1.77672548e+03
0.00000000e+00
5.28786863e+02
1.03771613e+03
1.25309614e+03
8.83665982e+02
1.20307821e+03
7.84741568e+02
1.89012359e+03
1.05343797e+03
1.44236168e+03
7.04500319e+02
8.52355170e+02
1.64358509e+03
1.34997793e+03
6.73567984e+02
2.09161009e+03
1.61106953e+03
1.29831185e+03
1.96034829e+03
1.09511707e+03
1.77857632e+03
0.00000000e+00
0.00000000e+00
1.48681047e+03
4.69048036e+02
1.05477863e+03
1.93083936e+03
1.68461742e+03
1.14695367e+03
1.70353256e+03
5.43543843e+02
1.22654186e+03
2.00741939e+03
9.13532359e+02
7.05543271e+02
2.02226093e+03
1.41785257e+03
9.87095802e+02
1.56187007e+03
8.68761168e+02
2.18168093e+03
2.07752512e+03
0.00000000e+00
0.00000000e+00
1.46228638e+03
8.76376827e+02
1.80244820e+03
2.26872667e+03
1.53306763e+03
1.65384247e+03
1.89492128e+03
1.07801741e+03
2.02822316e+03
8.60619718e+02
9.17631246e+02
6.23967402e+02
0.00000000e+00
2.14602980e+03
1.89785710e+03
1.75361759e+03
8.93539300e+02
1.70525185e+03
1.04260118e+03
0.00000000e+00
7.13154573e+02
1.68348113e+03
9.76947626e+02
1.80791369e+03
1.50019686e+03
8.53354873e+02
1.38972602e+03
1.73863703e+03
7.60957907e+02
2.26601256e+03
1.02613282e+03
8.95274582e+02
1.17205811e+03
5.22941062e+02
2.01327489e+03
7.59950263e+02
2.00844124e+03
2.18885447e+03
1.84375093e+03
1.09509465e+03
0.00000000e+00
0.00000000e+00
0.00000000e+00
2.21723904e+03
2.23283999e+03
1.91418068e+03
1.98849116e+03
1.23355635e+03
4.77637263e+02
1.00867981e+03
1.88047343e+03
2.25141523e+03
1.50304353e+03
1.98554740e+03
2.09209903e+03
2.38263861e+03
8.80684665e+02
2.41252912e+03
2.06712006e+03
2.19328801e+03
6.60406738e+02
5.05563108e+02
6.21503337e+02
8.59163918e+02
1.11335316e+03
1.53372407e+03
2.37366415e+03
2.02956446e+03
2.22252519e+03
1.70586308e+03
1.76026261e+03
1.52210539e+03
2.21653429e+03
1.63298313e+03
1.74174129e+03
8.29633813e+02
1.73078100e+03
5.53938788e+02
1.32577855e+03
1.90595111e+03
1.30143647e+03
0.00000000e+00
0.00000000e+00
0.00000000e+00
0.00000000e+00
2.15841512e+03
1.34794133e+03
2.04763926e+03
1.85209676e+03
2.31520891e+03
5.08233432e+02
8.28386797e+02
1.96466014e+03
7.60331523e+02
8.74138698e+02
1.83175354e+03
1.11800638e+03
1.84766766e+03
7.99307294e+02
1.40314262e+03
1.30353784e+03
7.91074205e+02
0.00000000e+00
0.00000000e+00
0.00000000e+00
0.00000000e+00
2.40719715e+03
1.49283339e+03
2.41346815e+03
6.57096711e+02
1.90301941e+03
1.51150834e+03
1.24101839e+03
1.90450394e+03
1.46468054e+03
2.40087891e+03
8.05655862e+02
1.52361003e+03
2.13051555e+03
1.26239190e+03
2.03557508e+03
1.14899653e+03
1.57751445e+03
0.00000000e+00
0.00000000e+00
1.45097363e+03
0.00000000e+00
1.81802641e+03
1.48209853e+03
2.03254989e+03
3.74910871e+02
1.66301408e+03
9.18496234e+02
2.21807366e+03
6.68271053e+02
1.38020865e+03
1.37409305e+03
1.59411610e+03
8.10789065e+02
1.47681567e+03
1.36220279e+03
1.68854776e+03
1.27825485e+03
1.05456617e+03
0.00000000e+00
0.00000000e+00
1.53558986e+03
1.38598704e+03
1.30450959e+03
1.52633054e+03
9.37931666e+02
5.21557350e+02
1.38777143e+03
2.43583067e+03
6.30225014e+02
2.49829121e+03
1.66918370e+03
2.36256250e+03
8.13328752e+02
2.23379581e+03
8.31902878e+02
1.31897132e+03
1.59862795e+03
1.47865416e+03
9.73445874e+02
0.00000000e+00
0.00000000e+00
0.00000000e+00
1.15944900e+03
1.90317631e+03
1.80153142e+03
1.62647369e+03
1.86474230e+03
1.81288767e+03
1.60327572e+03
2.01137079e+03
2.36593024e+03
8.62040721e+02
1.57586303e+03
2.01996610e+03
2.31601842e+03
4.30741061e+02
8.16247231e+02
1.49153291e+03
1.80805536e+03
1.13547873e+03
0.00000000e+00
0.00000000e+00
0.00000000e+00
2.35536664e+03
2.36164064e+03
2.18107778e+03
2.21698868e+03
2.46590546e+03
1.53752280e+03
1.16377961e+03
2.38959397e+03
2.25403171e+03
1.89067736e+03
2.48088465e+03
6.06520467e+02
5.86718540e+02
2.47009997e+03
2.55622659e+03
6.39903419e+02
2.06635643e+03
2.28003120e+03
8.28238083e+02
0.00000000e+00
1.14474116e+03
2.01513643e+03
1.42341659e+03
2.23886752e+03
1.58210075e+03
1.20366734e+03
2.41074709e+03
1.51811571e+03
1.36943482e+03
2.12937644e+03
1.17644406e+03
1.94930310e+03
1.75325194e+03
1.43665492e+03
1.86467716e+03
1.90410222e+03
1.65267841e+03
2.01129553e+03
1.43112905e+03
9.78871178e+02
0.00000000e+00
1.01971762e+03
2.39361093e+03
6.70476171e+02
1.15284975e+03
9.81040046e+02
6.96789598e+02
9.16585436e+02
1.60782052e+03
2.03040467e+03
2.25104389e+03
6.84361175e+02
1.57952089e+03
8.36179718e+02
9.40800488e+02
1.57595662e+03
5.61402500e+02
9.07612730e+02
2.38687163e+03
1.26646659e+03
1.56851872e+03
0.00000000e+00
1.14365189e+03
1.44135696e+03
2.18522644e+03
1.18657039e+03
7.47822810e+02
2.50472107e+03
2.46827801e+03
1.97200668e+03
1.12046308e+03
5.83310612e+02
1.01306703e+03
5.95231326e+02
5.15782204e+02
9.87455712e+02
1.82198866e+03
8.20401320e+02
2.46099237e+03
2.11986667e+03
1.86780252e+03
1.27275995e+03
9.71357088e+02
1.30300835e+03
1.56742226e+03
2.36058418e+03
2.30938743e+03
1.94191507e+03
1.45477262e+03
1.53392813e+03
2.39257778e+03
1.20223627e+03
1.63286732e+03
6.47318452e+02
1.25548079e+03
9.99935207e+02
1.58077578e+03
1.55547150e+03
2.43153370e+03
2.25284320e+03
1.61995709e+03
7.48330797e+02
1.88229042e+03
0.00000000e+00
1.30902812e+03
1.17268661e+03
1.14742051e+03
2.28911818e+03
1.25958389e+03
2.39097016e+03
1.84094494e+03
0.00000000e+00
0.00000000e+00
0.00000000e+00
0.00000000e+00
0.00000000e+00
0.00000000e+00
0.00000000e+00
1.34089193e+03
1.26044464e+03
1.52115773e+03
1.37224526e+03
2.29615724e+03
1.42081087e+03
1.05991228e+03
1.35853965e+03
1.50838311e+03
1.50181665e+03
1.41058356e+03
0.00000000e+00
1.12114684e+03
1.13891856e+03
1.10398657e+03
0.00000000e+00
0.00000000e+00
0.00000000e+00
0.00000000e+00
0.00000000e+00
0.00000000e+00
0.00000000e+00
0.00000000e+00
0.00000000e+00
0.00000000e+00
0.00000000e+00
0.00000000e+00
7.82560571e+02
6.90077458e+02
1.43333550e+03
0.00000000e+00
2.14124117e+03
1.28514172e+03
1.38333539e+03