# vtk DataFile Version 3.0
MPS 3D Simulation Step 9900
ASCII
DATASET UNSTRUCTURED_GRID
POINTS 20213 double
-1.19526535e-03 3.64574254e-04 -7.36889954e-04
-1.07075168e-03 1.50888243e-04 -7.92722426e-04
-9.88398904e-04 2.88432352e-04 -9.77845181e-04
-9.37101006e-04 3.23028531e-04 -1.03696387e-03
-8.93577750e-04 1.52487736e-04 -9.80613108e-04
-8.82048241e-04 3.53099765e-04 -1.09230019e-03
-6.52328623e-04 2.29008617e-04 -1.19057944e-03
-5.17902794e-04 2.33446694e-04 -1.26556122e-03
-4.75795569e-04 5.14723928e-04 -1.22718623e-03
-3.70130632e-04 8.70125030e-04 -1.02636156e-03
-2.11310000e-04 9.12383972e-04 -9.90911031e-04
-3.72362266e-04 9.65065968e-04 -1.09113684e-03
-1.18054182e-04 7.73433528e-04 -9.97529829e-04
-1.02104975e-04 2.36658539e-04 -1.37398102e-03
9.77121080e-07 2.43552142e-04 -1.37902062e-03
5.05105536e-04 1.37335289e-04 -1.20559904e-03
1.69188673e-04 7.56811438e-04 -5.93491571e-04
4.60376621e-04 2.70358617e-04 -1.29866321e-03
5.00655711e-04 8.90913736e-04 -1.04112652e-03
7.37603313e-04 1.01321321e-03 -8.26350864e-04
1.12803415e-03 7.72855783e-04 -6.62547788e-04
-1.16390034e-03 2.92498768e-04 -7.59148118e-04
-1.11610434e-03 2.44405972e-04 -8.07058393e-04
-1.04810721e-03 3.33927359e-04 -9.32748647e-04
-9.47979684e-04 4.10187618e-04 -1.05039218e-03
-8.99319930e-04 5.18026449e-04 -1.10060006e-03
-1.01270882e-03 4.57593753e-04 -1.00032064e-03
-8.21641405e-04 3.84332760e-04 -1.14320358e-03
-6.12905732e-04 3.49528352e-04 -1.25527471e-03
-3.79066174e-04 2.58056291e-04 -1.33603296e-03
-3.93671656e-04 1.25720136e-04 -1.26076211e-03
-1.67632526e-04 3.01262148e-04 -1.39035125e-03
1.37200313e-04 2.05292698e-04 -1.35483433e-03
1.54105161e-04 4.16211278e-04 -1.41182536e-03
2.18734584e-04 3.50236222e-04 -1.39176666e-03
2.72110117e-04 2.87025629e-04 -1.36377665e-03
4.48544336e-04 1.74641977e-04 -1.25684787e-03
4.20858788e-04 3.34713937e-04 -1.33474847e-03
3.98275723e-04 8.62609307e-04 -1.21376844e-03
3.61497311e-04 2.79676979e-04 -1.33893899e-03
5.17046420e-04 2.28691596e-04 -1.26159241e-03
8.13568138e-04 1.29899727e-04 -1.01755113e-03
-1.14191174e-03 3.43381946e-04 -8.17950651e-04
-1.10298907e-03 3.84184322e-04 -8.83094879e-04
-1.08548907e-03 5.83285149e-04 -9.26754301e-04
-8.57475025e-04 2.74158213e-04 -1.08122064e-03
-1.00045350e-03 3.71619657e-04 -9.95213330e-04
-8.87621590e-04 4.37866657e-04 -1.10331974e-03
-5.92693090e-04 2.62217013e-04 -1.23760287e-03
-7.31468879e-04 2.64418645e-04 -1.16072964e-03
-4.78633613e-04 3.65157309e-04 -1.32253532e-03
-3.04248782e-04 2.18142535e-04 -1.34216844e-03
-1.75658787e-04 4.06359085e-04 -1.40822863e-03
-5.89130476e-05 2.98871298e-04 -1.39755015e-03
9.49168263e-05 4.73804585e-04 -1.42127484e-03
2.80535973e-04 4.03469267e-04 -1.39172707e-03
2.35801470e-04 2.07869874e-04 -1.34275952e-03
4.16179050e-04 4.91780077e-04 -1.36122313e-03
4.62812625e-04 4.14568855e-04 -1.33471879e-03
3.84524576e-04 4.13447310e-04 -1.36405981e-03
6.57564935e-04 3.20558849e-04 -1.22693602e-03
7.26887117e-04 2.04454046e-04 -1.13496478e-03
7.40108545e-04 1.32109161e-04 -1.07642587e-03
-1.20874279e-03 4.50810722e-04 -7.33803602e-04
-1.12311588e-03 4.60110861e-04 -8.69865321e-04
-1.07945237e-03 4.96676324e-04 -9.30971709e-04
-9.60095126e-04 4.95082343e-04 -1.05263498e-03
-8.25832012e-04 4.67329367e-04 -1.15180917e-03
-7.46094726e-04 3.46792628e-04 -1.18288255e-03
-6.70714880e-04 3.06916036e-04 -1.21140317e-03
-3.98546454e-04 3.33807311e-04 -1.34843912e-03
-3.19369551e-04 3.90085408e-04 -1.37701111e-03
-3.62222097e-04 1.77189539e-04 -1.31056120e-03
-1.00032523e-04 4.51199467e-04 -1.41889505e-03
-1.80421464e-04 2.22434094e-04 -1.36662884e-03
-3.94687579e-05 3.85664177e-04 -1.41665802e-03
2.34904577e-05 3.23175610e-04 -1.40354450e-03
2.25122936e-04 4.56194678e-04 -1.40615801e-03
3.31349454e-04 3.49655387e-04 -1.36941379e-03
4.36709629e-04 5.73090620e-04 -1.35770192e-03
6.84868476e-04 3.99062634e-04 -1.22563318e-03
6.96075211e-04 2.60643758e-04 -1.18318932e-03
7.74659416e-04 2.77871130e-04 -1.13311900e-03
8.37422340e-04 3.33712747e-04 -1.11080112e-03
-1.21718203e-03 5.36261320e-04 -7.25625912e-04
-1.03590115e-03 6.21577336e-04 -9.82164157e-04
-1.05941032e-03 4.16762685e-04 -9.45124193e-04
-8.39429236e-04 5.54556250e-04 -1.14096579e-03
-6.99840844e-04 4.76163846e-04 -1.22838119e-03
-7.58808451e-04 4.28694009e-04 -1.19152555e-03
-4.03947319e-04 4.14079388e-04 -1.35342718e-03
-3.30912229e-04 4.72686334e-04 -1.37579309e-03
-2.38280666e-04 3.52420784e-04 -1.39093642e-03
-1.74909090e-04 4.95529425e-04 -1.41056334e-03
-1.02070805e-04 5.43834193e-04 -1.42133076e-03
-2.45613154e-04 2.69694876e-04 -1.37076326e-03
-3.00708370e-05 4.98406337e-04 -1.42382266e-03
2.05080450e-04 5.95198865e-04 -1.40756861e-03
1.93394652e-05 4.35886350e-04 -1.42378936e-03
3.27350243e-04 4.72443276e-04 -1.38568613e-03
3.56264530e-04 5.51584628e-04 -1.38131294e-03
5.59344071e-04 3.01838651e-04 -1.26942374e-03
7.34307703e-04 3.36416487e-04 -1.18294308e-03
7.93817130e-04 3.81631416e-04 -1.15182686e-03
8.22520184e-04 4.63160078e-04 -1.14370600e-03
-1.22094099e-03 6.22709300e-04 -7.17896246e-04
-1.13073181e-03 5.45975118e-04 -8.66477563e-04
-9.79305717e-04 6.49791193e-04 -1.03186115e-03
-1.03353869e-03 5.37376516e-04 -9.86403765e-04
-7.71161636e-04 5.16052563e-04 -1.18818265e-03
-6.26486510e-04 4.43289508e-04 -1.26344925e-03
-5.54864180e-04 4.02247547e-04 -1.29327738e-03
-4.86534642e-04 4.46206906e-04 -1.32585991e-03
-2.50656955e-04 4.42866029e-04 -1.39499794e-03
-3.39579840e-04 5.56940255e-04 -1.37344804e-03
-2.59247602e-04 5.29708039e-04 -1.39499812e-03
-1.15507790e-04 3.55101582e-04 -1.40889887e-03
1.70713292e-04 5.18613727e-04 -1.41379258e-03
2.65122703e-04 5.30212570e-04 -1.39974511e-03
8.47309516e-05 2.67135955e-04 -1.38309373e-03
1.66230957e-04 7.40275520e-04 -1.39539472e-03
2.90676613e-04 6.12874303e-04 -1.39299705e-03
4.93432546e-04 4.94736122e-04 -1.32989791e-03
6.01942216e-04 3.71047731e-04 -1.26771252e-03
7.49717168e-04 4.37292285e-04 -1.19085383e-03
9.03140843e-04 4.89354343e-04 -1.08158298e-03
-1.17929672e-03 5.85588304e-04 -7.90382786e-04
-1.17200288e-03 5.04045584e-04 -8.00736869e-04
-1.04410002e-03 7.00689504e-04 -9.61163726e-04
-9.11906156e-04 5.97968770e-04 -1.08713034e-03
-7.76288270e-04 6.00786615e-04 -1.17974995e-03
-6.35898548e-04 5.30916006e-04 -1.26205016e-03
-5.61400990e-04 4.89554266e-04 -1.29598504e-03
-4.13548314e-04 4.94302462e-04 -1.35170071e-03
-4.89770621e-04 5.33603547e-04 -1.32553580e-03
-4.18707932e-04 5.80255382e-04 -1.34752142e-03
-1.90152520e-04 5.79044791e-04 -1.40903677e-03
-2.47716040e-05 5.93492596e-04 -1.42337247e-03
3.96818164e-05 5.38516204e-04 -1.42358351e-03
1.12225736e-04 5.75782769e-04 -1.41837420e-03
1.37708581e-04 6.52938446e-04 -1.41073213e-03
5.10847545e-04 5.75498991e-04 -1.32688541e-03
4.49876024e-04 6.52006144e-04 -1.34957863e-03
5.43379270e-04 4.23952992e-04 -1.30068960e-03
5.71728782e-04 5.09219294e-04 -1.29297139e-03
8.51935526e-04 5.40111772e-04 -1.12895961e-03
8.02855052e-04 6.03802189e-04 -1.16748701e-03
-1.22988686e-03 7.02481260e-04 -6.95866593e-04
-1.13749858e-03 6.28588099e-04 -8.50297483e-04
-1.09446008e-03 6.60856329e-04 -9.08996616e-04
-9.78097753e-04 5.69502768e-04 -1.03935282e-03
-7.05440806e-04 5.62850041e-04 -1.22334115e-03
-5.65075483e-04 5.75835169e-04 -1.29317009e-03
-5.71950619e-04 6.62146857e-04 -1.28941374e-03
-4.97151078e-04 6.19659339e-04 -1.32206613e-03
-4.26573076e-04 6.66276555e-04 -1.34456829e-03
-3.44731221e-04 6.41826901e-04 -1.36905247e-03
-2.68558941e-04 6.18568283e-04 -1.38938288e-03
-1.25824976e-04 6.25636481e-04 -1.41623854e-03
-5.98537292e-05 6.66163046e-04 -1.41963217e-03
4.87071144e-05 6.36317197e-04 -1.41891544e-03
8.40940358e-05 7.21832547e-04 -1.40668326e-03
3.70376236e-04 6.35849791e-04 -1.37518874e-03
3.05367477e-04 6.98549249e-04 -1.38297613e-03
5.27518417e-04 6.61454079e-04 -1.31826190e-03
6.26229613e-04 4.51396722e-04 -1.26332583e-03
7.75583814e-04 5.24590584e-04 -1.18127562e-03
7.67622590e-04 7.29212221e-04 -1.18595336e-03
-1.18264803e-03 6.69294442e-04 -7.77937924e-04
-1.14000055e-03 7.14910089e-04 -8.35136157e-04
-1.09105951e-03 7.45486089e-04 -8.95073652e-04
-7.81112465e-04 6.80632498e-04 -1.16750730e-03
-7.09168210e-04 6.46801203e-04 -1.21791197e-03
-6.37790379e-04 6.13953451e-04 -1.25904306e-03
-5.78122675e-04 7.47603348e-04 -1.27652381e-03
-5.05728135e-04 7.08452354e-04 -1.31367552e-03
-4.39019683e-04 7.49488334e-04 -1.33356072e-03
-3.60079516e-04 7.22903381e-04 -1.36048504e-03
-2.78394947e-04 7.08546315e-04 -1.38151217e-03
-2.00843221e-04 6.70735304e-04 -1.40111349e-03
-1.31416100e-04 7.15749514e-04 -1.40642740e-03
-6.39358322e-05 7.63480555e-04 -1.40411424e-03
5.21060729e-06 7.08006759e-04 -1.41510471e-03
2.47753468e-04 7.67740184e-04 -1.38210908e-03
2.68567560e-04 8.49205438e-04 -1.35886850e-03
3.86195754e-04 7.18498164e-04 -1.36313356e-03
5.84998331e-04 5.96320334e-04 -1.29241694e-03
6.96599836e-04 4.90944382e-04 -1.22704911e-03
7.46393082e-04 6.52681376e-04 -1.20421670e-03
-1.19053958e-03 7.46376128e-04 -7.51354665e-04
-1.09864083e-03 8.20205641e-04 -8.58717471e-04
-9.86036270e-04 7.29030980e-04 -1.01150122e-03
-8.47641218e-04 6.39977086e-04 -1.12714098e-03
-7.87077112e-04 7.63561303e-04 -1.14717813e-03
-6.45147615e-04 7.00537765e-04 -1.24617492e-03
-6.52983956e-04 7.82943048e-04 -1.22739556e-03
-5.13045323e-04 7.96208862e-04 -1.29728680e-03
-4.40475844e-04 8.30752695e-04 -1.31782057e-03
-3.64602774e-04 8.02383521e-04 -1.34763862e-03
-2.86974553e-04 7.94807137e-04 -1.36615368e-03
-2.06193395e-04 7.59321114e-04 -1.38962362e-03
-1.35537252e-04 8.07814116e-04 -1.38945962e-03
-5.85668179e-05 8.47713380e-04 -1.38487870e-03
1.45942133e-05 7.91131568e-04 -1.39848510e-03
1.80687021e-04 8.27036968e-04 -1.37623153e-03
3.54808613e-04 8.64872907e-04 -1.34028204e-03
3.28708730e-04 7.86059207e-04 -1.36432809e-03
6.04518138e-04 6.79943550e-04 -1.27891882e-03
7.22334445e-04 5.75537128e-04 -1.21730730e-03
7.16195761e-04 7.90405487e-04 -1.20383640e-03
-1.14879231e-03 7.91385718e-04 -8.03723209e-04
-1.08955020e-03 8.99610095e-04 -8.36033381e-04
[...]
POINT_DATA 20213
SCALARS pressure double 1
LOOKUP_TABLE default
0.00000000e+00
0.00000000e+00
0.00000000e+00
0.00000000e+00
0.00000000e+00
0.00000000e+00
0.00000000e+00
3.08582020e+02
9.73365267e+02
1.27207734e+03
1.49565552e+03
1.05908926e+03
1.80128358e+03
7.41803024e+02
0.00000000e+00
1.16275822e+03
2.28405201e+03
1.20405077e+03
1.39189082e+03
1.24372394e+03
7.40420884e+02
0.00000000e+00
0.00000000e+00
4.90199004e+02
0.00000000e+00
1.04682374e+03
0.00000000e+00
0.00000000e+00
0.00000000e+00
4.58083476e+02
0.00000000e+00
7.21872096e+02
0.00000000e+00
0.00000000e+00
0.00000000e+00
0.00000000e+00
1.14884607e+03
9.21334850e+02
9.17444909e+02
0.00000000e+00
1.46371674e+03
0.00000000e+00
0.00000000e+00
6.65338885e+02
9.45813529e+02
0.00000000e+00
6.05951975e+02
0.00000000e+00
0.00000000e+00
0.00000000e+00
0.00000000e+00
7.71878172e+02
0.00000000e+00
7.31195443e+02
0.00000000e+00
0.00000000e+00
0.00000000e+00
0.00000000e+00
0.00000000e+00
0.00000000e+00
1.63101601e+03
1.18874846e+03
9.36763050e+02
0.00000000e+00
0.00000000e+00
8.57118712e+02
0.00000000e+00
0.00000000e+00
0.00000000e+00
0.00000000e+00
0.00000000e+00
0.00000000e+00
0.00000000e+00
0.00000000e+00
0.00000000e+00
5.12814027e+02
6.09493305e+02
0.00000000e+00
0.00000000e+00
0.00000000e+00
1.25426698e+03
1.36929080e+03
0.00000000e+00
0.00000000e+00
0.00000000e+00
1.43304651e+03
0.00000000e+00
1.21145093e+03
0.00000000e+00
0.00000000e+00
0.00000000e+00
0.00000000e+00
0.00000000e+00
0.00000000e+00
0.00000000e+00
8.21584137e+02
0.00000000e+00
0.00000000e+00
0.00000000e+00
0.00000000e+00
0.00000000e+00
1.47731664e+03
1.19778679e+03
9.07556725e+02
0.00000000e+00
0.00000000e+00
0.00000000e+00
1.45236404e+03
1.07130565e+03
0.00000000e+00
0.00000000e+00
0.00000000e+00
0.00000000e+00
0.00000000e+00
0.00000000e+00
0.00000000e+00
0.00000000e+00
0.00000000e+00
0.00000000e+00
0.00000000e+00
0.00000000e+00
0.00000000e+00
0.00000000e+00
1.43312736e+03
0.00000000e+00
0.00000000e+00
0.00000000e+00
0.00000000e+00
1.30033180e+03
1.47673143e+03
1.42390313e+03
1.02102296e+03
8.45887787e+02
0.00000000e+00
9.09513904e+02
7.05957196e+02
0.00000000e+00
0.00000000e+00
0.00000000e+00
0.00000000e+00
0.00000000e+00
0.00000000e+00
0.00000000e+00
0.00000000e+00
1.06992336e+03
0.00000000e+00
1.18112866e+03
0.00000000e+00
0.00000000e+00
1.04307463e+03
1.33075789e+03
1.12847111e+03
1.16215125e+03
1.20253763e+03
1.08615662e+03
0.00000000e+00
0.00000000e+00
0.00000000e+00
0.00000000e+00
0.00000000e+00
0.00000000e+00
0.00000000e+00
0.00000000e+00
0.00000000e+00
0.00000000e+00
1.24893396e+03
1.10022593e+03
0.00000000e+00
0.00000000e+00
0.00000000e+00
0.00000000e+00
1.58077451e+03
1.39872777e+03
1.25173006e+03
1.15266714e+03
1.07931654e+03
8.79682939e+02
7.77523957e+02
0.00000000e+00
0.00000000e+00
0.00000000e+00
0.00000000e+00
0.00000000e+00
0.00000000e+00
0.00000000e+00
0.00000000e+00
0.00000000e+00
1.19738331e+03
1.36561298e+03
1.01942706e+03
1.13717489e+03
1.53442608e+03
1.55970154e+03
1.65603287e+03
1.38990475e+03
1.30052955e+03
9.16054012e+02
0.00000000e+00
8.20073646e+02
0.00000000e+00
0.00000000e+00
0.00000000e+00
0.00000000e+00
0.00000000e+00
0.00000000e+00
0.00000000e+00
0.00000000e+00
1.21506255e+03
1.33239578e+03
1.19367453e+03
1.07270532e+03
1.13141780e+03
1.76500879e+03
1.74993149e+03
1.51408285e+03
1.50172254e+03
0.00000000e+00
8.26974158e+02
0.00000000e+00
8.36800828e+02
5.66491330e+02
0.00000000e+00
0.00000000e+00
4.30047722e+02
0.00000000e+00
0.00000000e+00
3.73982345e+02
0.00000000e+00
8.89564038e+02
1.27432904e+03
1.21969378e+03
1.07772012e+03
1.12593355e+03
1.21507539e+03
1.48513995e+03
1.69582222e+03
1.40093245e+03
0.00000000e+00
9.65591677e+02
0.00000000e+00
8.85830717e+02
9.18209596e+02
0.00000000e+00
0.00000000e+00
5.07654130e+02
0.00000000e+00
0.00000000e+00
0.00000000e+00
0.00000000e+00
9.85417857e+02
1.19915517e+03
0.00000000e+00
9.66688000e+02
7.99445572e+02
0.00000000e+00
1.12556031e+03
1.28300696e+03
1.02789155e+03
0.00000000e+00
7.94864185e+02
7.61848422e+02
0.00000000e+00
4.82193957e+02
0.00000000e+00
6.26891430e+02
5.50032515e+02
0.00000000e+00
0.00000000e+00
5.49219008e+02
6.31022579e+02
1.09644731e+03
1.15059403e+03
1.13203302e+03
0.00000000e+00
9.73197245e+02
0.00000000e+00
0.00000000e+00
9.73313516e+02
0.00000000e+00
7.65923542e+02
0.00000000e+00
0.00000000e+00
8.07415886e+02
0.00000000e+00
6.44517778e+02
0.00000000e+00
0.00000000e+00
0.00000000e+00
0.00000000e+00
0.00000000e+00
9.42803091e+02
9.56942306e+02
0.00000000e+00
1.15377216e+03
0.00000000e+00
0.00000000e+00
0.00000000e+00
0.00000000e+00
0.00000000e+00
0.00000000e+00
0.00000000e+00
0.00000000e+00
8.62806603e+02
7.97426763e+02
8.15987441e+02
6.62298907e+02
7.49224188e+02
0.00000000e+00
0.00000000e+00
0.00000000e+00
0.00000000e+00
0.00000000e+00
0.00000000e+00
1.02563495e+03
9.96067739e+02
0.00000000e+00
0.00000000e+00
0.00000000e+00
0.00000000e+00
0.00000000e+00
0.00000000e+00
0.00000000e+00
0.00000000e+00
6.68277644e+02
0.00000000e+00
0.00000000e+00
0.00000000e+00
6.30754339e+02
0.00000000e+00
0.00000000e+00
0.00000000e+00
0.00000000e+00
0.00000000e+00
0.00000000e+00
9.44194893e+02
9.29373140e+02
0.00000000e+00
7.28196629e+02
0.00000000e+00
0.00000000e+00
0.00000000e+00
0.00000000e+00
0.00000000e+00
0.00000000e+00
0.00000000e+00
0.00000000e+00
0.00000000e+00
0.00000000e+00
6.88500276e+02
0.00000000e+00
0.00000000e+00
0.00000000e+00
0.00000000e+00
0.00000000e+00
0.00000000e+00
6.42326600e+02
0.00000000e+00
0.00000000e+00
7.64856311e+02
8.93909758e+02
0.00000000e+00
0.00000000e+00
3.56288480e+02
0.00000000e+00
0.00000000e+00
0.00000000e+00
0.00000000e+00
0.00000000e+00
5.70424272e+02
5.38142539e+02
0.00000000e+00
0.00000000e+00
0.00000000e+00
0.00000000e+00
0.00000000e+00
0.00000000e+00
0.00000000e+00
7.16474455e+02
0.00000000e+00
6.08537111e+02
0.00000000e+00
0.00000000e+00
7.46903618e+02
0.00000000e+00
0.00000000e+00
0.00000000e+00
0.00000000e+00
0.00000000e+00
4.84484334e+02
0.00000000e+00
0.00000000e+00
7.03133437e+02
0.00000000e+00
8.51808319e+02
0.00000000e+00
5.58402361e+02
0.00000000e+00
6.66650559e+02
0.00000000e+00
6.92136256e+02
8.86054086e+02
8.58528356e+02
0.00000000e+00
5.84512741e+02
0.00000000e+00
4.40291985e+02
0.00000000e+00
0.00000000e+00
0.00000000e+00
0.00000000e+00
0.00000000e+00
0.00000000e+00
0.00000000e+00
9.04236916e+02
1.02544275e+03
7.66142271e+02
0.00000000e+00
8.92036580e+02
0.00000000e+00
0.00000000e+00
0.00000000e+00
7.66295181e+02
8.14680150e+02
0.00000000e+00
0.00000000e+00
0.00000000e+00
4.68041108e+02
0.00000000e+00
0.00000000e+00
0.00000000e+00
0.00000000e+00
0.00000000e+00
7.17249158e+02
0.00000000e+00
8.39654936e+02
1.15313063e+03
1.04681754e+03
1.06180845e+03
1.00888832e+03
7.32557008e+02
8.52088513e+02
0.00000000e+00
0.00000000e+00
1.20411572e+03
0.00000000e+00
0.00000000e+00
0.00000000e+00
1.64477962e+03
0.00000000e+00
0.00000000e+00
1.16558681e+03
1.76532736e+03
2.05435350e+03
1.33220984e+03
7.14467327e+02
7.78110969e+02
1.83462211e+03
1.20046863e+03
1.14898160e+03
1.10262232e+03
0.00000000e+00
0.00000000e+00
0.00000000e+00
1.61985011e+03
8.01806586e+02
1.90184016e+03
7.45807639e+02
1.27648690e+03
8.17804530e+02
1.56039188e+03
1.28795599e+03
1.77051675e+03
1.75794946e+03
2.00407871e+03
9.53471456e+02
1.84671602e+03
2.01794327e+03
2.00680856e+03
1.44460574e+03
1.81672073e+03
1.77877840e+03
1.55399411e+03
0.00000000e+00
0.00000000e+00
1.35335792e+03
1.18040812e+03
1.49492954e+03
1.35121175e+03
7.60208348e+02
2.03143743e+03
0.00000000e+00
7.02467828e+02
8.63615065e+02
0.00000000e+00
7.31367586e+02
0.00000000e+00
0.00000000e+00
1.21697046e+03
1.02115385e+03
1.53202766e+03
9.38533143e+02
1.65811305e+03
1.24682715e+03
8.74665987e+02
0.00000000e+00
7.77627542e+02
1.69624771e+03
1.42191436e+03
1.22640955e+03
1.41921545e+03
6.98743354e+02
1.26098411e+03
1.05125909e+03
8.17483513e+02
1.37680582e+03
1.35046641e+03
2.15960624e+03
1.16826544e+03
1.02672878e+03
9.14979906e+02
1.86855569e+03
2.12160341e+03
1.05058720e+03
2.13019910e+03
0.00000000e+00
8.32791595e+02
1.09383550e+03
2.02096361e+03
1.94641405e+03
1.60686548e+03
1.79957490e+03
2.06893823e+03
6.22555365e+02
7.01854290e+02
1.88004312e+03
1.82151379e+03
1.82803878e+03
1.24667862e+03
9.42869934e+02
0.00000000e+00
2.03942943e+03
5.15080538e+02
1.16155151e+03
1.69338882e+03
8.72399748e+02
0.00000000e+00
0.00000000e+00
1.47280412e+03
9.59272906e+02
9.68520440e+02
1.14382624e+03
0.00000000e+00
2.03171679e+03
1.29068486e+03
5.99073743e+02
6.37094337e+02
1.57936629e+03
6.71820889e+02
1.59784867e+03
1.66465355e+03
1.06658326e+03
0.00000000e+00
1.59745013e+03
1.18109525e+03
8.44891509e+02
1.94187202e+03
8.17772469e+02
0.00000000e+00
1.36922717e+03
1.24845670e+03
1.53188381e+03
1.48554464e+03
8.92134750e+02
1.95055970e+03
1.39386714e+03
5.75134509e+02
1.77210919e+03
5.96761206e+02
1.43342437e+03
1.36497878e+03
1.34409481e+03
1.40865430e+03
1.83338333e+03
1.47354281e+03
9.49862780e+02
7.92159058e+02
8.36224967e+02
0.00000000e+00
0.00000000e+00
1.06230755e+03
0.00000000e+00
1.17392757e+03
1.37703579e+03
1.71663726e+03
1.50831817e+03
1.92613274e+03
1.91964290e+03
1.72538797e+03
1.06023436e+03
9.49481993e+02
1.44045858e+03
1.31468976e+03
1.95372842e+03
2.04222139e+03
1.18778010e+03
1.05779396e+03
1.15269228e+03
9.16861883e+02
1.19273852e+03
0.00000000e+00
1.80727457e+03
1.44943059e+03
1.98713108e+03
1.49884960e+03
1.69435411e+03
1.09477292e+03
1.71682154e+03
1.15553494e+03
5.23127978e+02
1.40871005e+03
1.95645875e+03
1.06016968e+03
1.64135838e+03
1.07983100e+03
1.04588943e+03
1.43129317e+03
1.33645083e+03
1.30667453e+03
1.18255084e+03
0.00000000e+00
0.00000000e+00
1.96016843e+03
1.75183472e+03
1.09987873e+03
8.47767755e+02
5.24465927e+02
6.19707250e+02
6.26999536e+02
1.40586982e+03
8.59659877e+02
7.96134040e+02
1.15587118e+03
1.82260298e+03
8.83513841e+02
8.59679755e+02
1.18281191e+03
8.81125596e+02
1.23965598e+03
0.00000000e+00
9.98777395e+02
1.07947126e+03
0.00000000e+00
1.62268367e+03
1.65050048e+03
1.10259053e+03
9.05445493e+02
9.06578218e+02
8.73656674e+02
1.36605299e+03
1.44519606e+03
1.69655485e+03
8.59264231e+02
1.88140758e+03
7.79252644e+02
1.71956706e+03
1.09427367e+03
1.19899479e+03
1.51693068e+03
1.56459404e+03
1.07579826e+03
1.50478813e+03
0.00000000e+00
9.85826329e+02
1.17778492e+03
1.63771402e+03
9.13440647e+02
7.71964899e+02
6.07625819e+02
1.10282111e+03
6.12980090e+02
1.71025342e+03
1.34863826e+03
1.89779681e+03
1.23064270e+03
1.66072197e+03
7.27689796e+02
1.47796512e+03
1.15898324e+03
1.15894218e+03
1.09987832e+03
0.00000000e+00
9.99889259e+02
1.08427528e+03
7.64661577e+02
1.59835177e+03
1.20950348e+03
1.55407142e+03
1.48280026e+03
6.42563265e+02
8.98640455e+02
1.77050029e+03
1.55257776e+03
9.07236417e+02
1.23831619e+03
1.78939991e+03
4.24612274e+02
1.42266439e+03
1.21288732e+03
1.27028595e+03
1.33789634e+03
1.60876370e+03
1.16741761e+03
1.87083161e+03
1.12723709e+03
0.00000000e+00
9.67151398e+02
1.37278942e+03
1.36226331e+03
6.96097658e+02
6.20292196e+02
1.09387818e+03
1.08297780e+03
1.56107844e+03
5.96874894e+02
1.10351332e+03
8.65490033e+02
9.94206314e+02
6.13299344e+02
9.79595515e+02
1.32302269e+03
1.56945265e+03
1.58848372e+03
1.25310597e+03
9.96005073e+02
6.76353050e+02
0.00000000e+00
1.03242308e+03
1.20512363e+03
1.18819194e+03
1.50564218e+03
1.21713010e+03
1.46528482e+03
1.95614965e+03
1.62751771e+03
7.05753068e+02
1.98245804e+03
8.90113950e+02
7.97494863e+02
6.97903743e+02
1.15974745e+03
1.36071173e+03
1.54168140e+03
1.21856421e+03
1.14505805e+03
1.06235636e+03
0.00000000e+00
0.00000000e+00
1.16413570e+03
1.30962992e+03
7.30078800e+02
5.89337133e+02
0.00000000e+00
9.25513798e+02
6.27782827e+02
8.81698210e+02
8.61440475e+02
1.40507001e+03
1.63635224e+03
1.14679641e+03
9.71108311e+02
1.12295448e+03
0.00000000e+00
1.73067705e+03
8.54007505e+02
1.30632774e+03
9.86394960e+02
0.00000000e+00
0.00000000e+00
1.16555316e+03
1.33467950e+03
1.10330277e+03
1.69556867e+03
7.00551958e+02
9.39374183e+02
6.11069107e+02
1.40571775e+03
7.23932577e+02
1.11043088e+03
1.00092084e+03
1.17480236e+03
1.16392435e+03
1.30967307e+03
1.05748661e+03
1.55972345e+03
1.05788438e+03
1.70482286e+03
5.23523223e+02
0.00000000e+00
0.00000000e+00
1.12022310e+03
1.11828274e+03
1.42176795e+03
9.76775227e+02
1.46993338e+03
1.11111333e+03
9.58980474e+02
1.27552041e+03
9.08359554e+02
1.01941955e+03
1.05224515e+03
1.42134679e+03
1.42782833e+03
1.20267091e+03
1.12391915e+03
1.14550332e+03
1.24774577e+03
9.22948673e+02
6.64809419e+02
0.00000000e+00
0.00000000e+00
1.13073036e+03
9.90693863e+02
1.10076815e+03
1.34214069e+03
1.11094700e+03
8.90715910e+02
0.00000000e+00
3.95067118e+02
0.00000000e+00
0.00000000e+00
0.00000000e+00
0.00000000e+00
0.00000000e+00
8.89673765e+02
1.12429528e+03
1.04121682e+03
7.54521876e+02
8.76172996e+02
1.54354440e+03
0.00000000e+00
7.62371238e+02
1.23655082e+03
8.17576421e+02
1.05378847e+03
9.37763369e+02
1.19437364e+03
1.00060212e+03
6.57640328e+02
1.12310035e+03
9.17476678e+02
1.37215713e+03
1.09158757e+03
1.26841836e+03
1.05547545e+03
1.02117772e+03
9.31147039e+02
9.13206401e+02
1.05894729e+03
1.42536901e+03
1.59624683e+03
7.59941884e+02
0.00000000e+00
0.00000000e+00
7.79213490e+02
0.00000000e+00
0.00000000e+00
0.00000000e+00
0.00000000e+00
5.11236478e+02
0.00000000e+00
0.00000000e+00
6.71975863e+02
0.00000000e+00
7.78212471e+02
9.16386984e+02
0.00000000e+00
1.10215961e+03
0.00000000e+00
1.17133988e+03
1.17520132e+03
0.00000000e+00
0.00000000e+00
7.16559321e+02
6.38290897e+02
0.00000000e+00
0.00000000e+00
6.95877118e+02
5.54979553e+02
0.00000000e+00
0.00000000e+00
0.00000000e+00
5.40732773e+02
4.72737599e+02
1.38330863e+03
7.38187438e+02
0.00000000e+00
1.20123659e+03
1.63070421e+03
7.44533213e+02
9.40716683e+02
5.54748139e+02
0.00000000e+00
8.98126239e+02
0.00000000e+00
9.20549693e+02
1.32605103e+03
1.07509219e+03
1.37197229e+03
8.95931081e+02
8.04338716e+02
7.94597946e+02
2.14678070e+03
0.00000000e+00
1.45050342e+03
1.36248645e+03
5.72404884e+02
0.00000000e+00
5.70562716e+02
2.12461082e+03
1.76613708e+03
2.17039654e+03
1.45565257e+03
9.91746423e+02
0.00000000e+00
0.00000000e+00
1.16440550e+03
1.74079537e+03
2.05483403e+03
1.63579081e+03
1.61160283e+03
1.89693272e+03
8.86809247e+02
1.27369305e+03
2.07474808e+03
8.63094267e+02
1.57883416e+03
1.75405216e+03
1.38959248e+03
1.61344784e+03
1.99215886e+03
1.57818366e+03
1.44192193e+03
1.04124885e+03
1.73492035e+03
0.00000000e+00
0.00000000e+00
9.01902015e+02
1.05375339e+03
1.05356350e+03
9.94879774e+02
1.59334332e+03
1.79569743e+03
1.06535385e+03
1.65174436e+03
7.33397600e+02
8.89436385e+02
1.75027522e+03
1.83225702e+03
1.34349079e+03
2.04082451e+03
2.01584600e+03
1.89845788e+03
2.02627920e+03
1.80917598e+03
2.23410920e+03
0.00000000e+00
6.89863801e+02
1.31712994e+03
7.26339017e+02
1.09227634e+03
1.74128903e+03
1.51922766e+03
1.42965498e+03
1.49946424e+03
1.21554055e+03
1.42350505e+03
2.17548851e+03
4.41510807e+02
1.02670230e+03
2.34533126e+03
1.72323847e+03
1.23721894e+03
2.20752569e+03
1.45786070e+03
2.32385609e+03
2.27380903e+03
0.00000000e+00
7.71820035e+02
1.16940780e+03
4.94775850e+02
1.34344574e+03
1.95657606e+03
1.49456086e+03
1.75073458e+03
1.75273669e+03
1.01370869e+03
2.03668819e+03
6.88705183e+02
1.13657501e+03
6.23597787e+02
0.00000000e+00
2.25740843e+03
1.99693031e+03
1.94780845e+03
1.25036605e+03
2.25378114e+03
1.62521631e+03
0.00000000e+00
0.00000000e+00
1.36473892e+03
8.10151819e+02
1.83069372e+03
1.70671960e+03
9.99219953e+02
1.27506202e+03
1.43914085e+03
7.14148537e+02
2.08104729e+03
1.15595184e+03
4.34564475e+02
1.03654082e+03
1.17217649e+03
1.89042862e+03
1.13863897e+03
2.12579690e+03
2.03842116e+03
2.29774169e+03
1.11634452e+03
0.00000000e+00
8.46135718e+02
1.03648651e+03
1.65541994e+03
1.85836534e+03
1.78763099e+03
1.61498166e+03
6.26297988e+02
7.92703166e+02
1.46322722e+03
2.29524911e+03
2.09466067e+03
1.64905317e+03
2.03021570e+03
1.96427642e+03
1.63419665e+03
1.25599104e+03
1.61731832e+03
1.67332563e+03
2.10865569e+03
9.80814718e+02
7.77807004e+02
8.63094618e+02
8.39196495e+02
1.12583222e+03
1.18995958e+03
1.74486488e+03
1.71871090e+03
1.81609085e+03
1.85378966e+03
1.90926428e+03
1.89240862e+03
2.13428871e+03
1.80687908e+03
2.04893121e+03
8.49526337e+02
1.66690275e+03
1.27282424e+03
1.51952100e+03
1.95643103e+03
1.90340470e+03
0.00000000e+00
0.00000000e+00
9.71297460e+02
9.64220403e+02
1.93562755e+03
9.15660596e+02
1.86242010e+03
1.36699590e+03
1.97813503e+03
7.01443252e+02
6.98873096e+02
1.71441898e+03
1.11705996e+03
1.08133928e+03
2.08120988e+03
1.28799616e+03
1.59480470e+03
1.47669576e+03
1.40825458e+03
1.71221371e+03
1.34096679e+03
0.00000000e+00
1.14898066e+03
0.00000000e+00
0.00000000e+00
1.30164202e+03
8.80462391e+02
1.59425329e+03
7.28595505e+02
1.45343846e+03
1.09391360e+03
1.24381972e+03
1.86012908e+03
1.82290446e+03
1.53902138e+03
3.11554287e+02
1.42766697e+03
1.87901981e+03
1.59947780e+03
2.08280918e+03
1.12077095e+03
2.21937298e+03
0.00000000e+00
1.03890721e+03
7.62715484e+02
9.55944321e+02
1.59769741e+03
1.00349609e+03
1.76118333e+03
6.47167182e+02
1.41494330e+03
1.37758990e+03
1.55724502e+03
9.45929465e+02
1.54096553e+03
1.15012143e+03
1.80061709e+03
9.79707620e+02
1.34326742e+03
1.35176772e+03
2.01550362e+03
1.45310446e+03
1.41997135e+03
1.14531809e+03
1.04629882e+03
0.00000000e+00
8.25098855e+02
1.05242598e+03
1.08691581e+03
8.00344900e+02
8.34267121e+02
1.04272229e+03
1.70815291e+03
9.47946091e+02
1.67367332e+03
1.98643184e+03
1.77206998e+03
1.42295647e+03
2.00438618e+03
7.48589332e+02
1.49305019e+03
1.53273471e+03
1.48565780e+03
1.25390269e+03
0.00000000e+00
0.00000000e+00
0.00000000e+00
0.00000000e+00
1.64660758e+03
1.26441619e+03
1.20490732e+03
1.31482504e+03
1.30966317e+03
1.62097708e+03
1.36879320e+03
1.63740162e+03
9.09287096e+02
1.41153534e+03
1.78426425e+03
1.49806275e+03
1.18490539e+03
1.24566128e+03
1.66474763e+03
1.73797610e+03
1.00153545e+03
1.10344698e+03
0.00000000e+00
8.85914837e+02
1.71418444e+03
1.51630910e+03
1.44075680e+03
1.30949549e+03
1.58281885e+03
1.18798311e+03
5.98628230e+02
1.58395097e+03
1.46951174e+03
1.37673776e+03
1.49625703e+03
9.24461487e+02
1.04966869e+03
1.34742532e+03
1.24110096e+03
9.02167058e+02
1.76186808e+03
1.65231649e+03
9.47848849e+02
0.00000000e+00
7.72788315e+02
1.29661036e+03
1.18202129e+03
1.56949546e+03
1.09175840e+03
9.90187943e+02
1.85906837e+03
1.17635279e+03
1.27012525e+03
1.52939293e+03
9.88129083e+02
1.63507956e+03
1.43509104e+03
1.30279127e+03
1.47377929e+03
1.91410825e+03
1.76536583e+03
1.55689764e+03
1.43585131e+03
6.71461935e+02
0.00000000e+00
0.00000000e+00
1.17405859e+03
4.69556404e+02
1.22049050e+03
9.00972492e+02
8.42784598e+02
8.82479112e+02
1.16124862e+03
1.51966383e+03
1.30235120e+03
7.21488195e+02
1.30578529e+03
1.52454142e+03
1.07848320e+03
1.38226635e+03
1.19897218e+03
1.22343673e+03
1.62164631e+03
1.38008800e+03
1.60193111e+03
0.00000000e+00
7.70625689e+02
1.28926570e+03
1.45054305e+03
1.06060534e+03
8.91541786e+02
1.23515050e+03
1.28491416e+03
1.31926203e+03
1.03307218e+03
7.38080470e+02
9.67753990e+02
1.02762588e+03
1.02162350e+03
1.13820583e+03
1.39411559e+03
1.25846559e+03
1.45625983e+03
1.53970592e+03
1.85176003e+03
1.21576160e+03
7.74208389e+02
9.60791496e+02
1.03589607e+03
1.23843590e+03
1.48669796e+03
1.32617315e+03
9.61239954e+02
1.18944329e+03
1.43339742e+03
1.02351531e+03
1.36937544e+03
1.08616749e+03
1.32327725e+03
1.25342636e+03
1.13281734e+03
1.25319920e+03
1.27879998e+03
1.29131217e+03
1.37405232e+03
1.03123625e+03
1.46948763e+03
6.35859084e+02
9.59492998e+02
9.82932140e+02
1.11625990e+03
1.28064742e+03
1.29528130e+03
1.29980591e+03
1.19525620e+03
7.45494352e+02
0.00000000e+00
8.96963941e+02
0.00000000e+00
0.00000000e+00
8.04534582e+02
0.00000000e+00
1.15719332e+03
8.11226539e+02
1.32151194e+03
6.40360502e+02
1.36436262e+03
1.40800748e+03
7.40351937e+02
1.22518830e+03
9.86875917e+02
0.00000000e+00
8.73652111e+02
7.58534364e+02
0.00000000e+00
0.00000000e+00
0.00000000e+00
0.00000000e+00
0.00000000e+00
9.13918678e+02
9.02174862e+02
8.82060820e+02
0.00000000e+00
0.00000000e+00
1.01674926e+03
1.07180590e+03
1.16245062e+03
1.05734821e+03
0.00000000e+00
7.90368993e+02
7.14883186e+02
8.61579213e+02
6.61792450e+02
1.91592229e+03
1.05951970e+03
1.24410757e+03