# vtk DataFile Version 3.0
MPS 3D Simulation Step 4800
ASCII
DATASET UNSTRUCTURED_GRID
POINTS 20213 double
-1.09763819e-03 3.47275913e-04 -9.57872502e-04
-9.85549938e-04 2.23117596e-04 -1.00785643e-03
-8.78769981e-04 2.47267392e-04 -1.11156303e-03
-8.35971951e-04 2.90192253e-04 -1.16511208e-03
-7.52941404e-04 1.53078384e-04 -1.14291798e-03
-7.16018820e-04 3.49266383e-04 -1.26094174e-03
-5.70115675e-04 1.99149026e-04 -1.27551864e-03
-4.36439500e-04 2.46752569e-04 -1.34328778e-03
-2.98796033e-04 1.62448393e-04 -1.34319208e-03
-3.28516060e-04 6.89270105e-04 -1.19278049e-03
-1.15788544e-04 5.98538640e-04 -1.36569269e-03
-2.02906857e-04 5.70141613e-04 -1.33793453e-03
-4.51484722e-05 2.27112818e-04 -1.31067948e-03
8.44413388e-05 1.48287440e-04 -1.38436316e-03
2.28093717e-04 1.15955665e-04 -1.33527655e-03
5.37557844e-04 1.22801519e-04 -1.24254300e-03
4.31855615e-04 4.90709810e-04 -1.18975698e-03
6.25961526e-04 1.43920530e-04 -1.21477973e-03
7.54150504e-04 3.04152868e-04 -1.10038501e-03
9.39088695e-04 4.69516949e-04 -1.00413014e-03
1.04113357e-03 2.33466447e-04 -8.19455496e-04
-1.01967032e-03 3.00687233e-04 -1.01703667e-03
-9.46954973e-04 2.69384134e-04 -1.06541794e-03
-9.09979882e-04 3.27417197e-04 -1.12138598e-03
-7.83009353e-04 3.41328592e-04 -1.21958735e-03
-7.51112353e-04 5.10849155e-04 -1.24348941e-03
-8.00679804e-04 4.21310955e-04 -1.21526471e-03
-6.48260950e-04 4.19813515e-04 -1.29727165e-03
-4.74159802e-04 3.26591187e-04 -1.35506759e-03
-2.41120844e-04 2.13825769e-04 -1.38182028e-03
-1.70691433e-04 1.67303972e-04 -1.37632352e-03
3.81067114e-05 2.15122278e-04 -1.42422747e-03
1.61128107e-04 1.63897193e-04 -1.38551280e-03
3.00334871e-04 2.30698593e-04 -1.39809419e-03
3.60354065e-04 2.91089135e-04 -1.40448258e-03
3.75379937e-04 2.13262520e-04 -1.37257880e-03
4.79430360e-04 1.65631735e-04 -1.31122632e-03
5.57324204e-04 1.90448117e-04 -1.28751527e-03
5.66838889e-04 1.35913954e-04 -1.14389400e-03
6.34116194e-04 2.13845185e-04 -1.25915823e-03
7.75467337e-04 1.71218123e-04 -1.14607488e-03
9.78963745e-04 1.59419553e-04 -1.00051515e-03
-9.77765235e-04 3.49071258e-04 -1.07169278e-03
-9.37333279e-04 4.08148131e-04 -1.11710400e-03
-9.68060599e-04 5.78968471e-04 -1.08647115e-03
-7.58243462e-04 2.64852174e-04 -1.20948516e-03
-8.57007898e-04 3.70599403e-04 -1.17370945e-03
-7.30321787e-04 4.29319635e-04 -1.25894145e-03
-5.27049476e-04 2.67929344e-04 -1.32164869e-03
-6.07744012e-04 2.69799328e-04 -1.28943469e-03
-3.22445703e-04 3.45113012e-04 -1.40463337e-03
-1.78803943e-04 2.58026862e-04 -1.41599236e-03
-9.18800053e-06 4.32239052e-04 -1.46970818e-03
1.18501257e-04 2.24225165e-04 -1.42253970e-03
2.13595650e-04 3.52014557e-04 -1.45229416e-03
4.42288871e-04 2.95430077e-04 -1.38158554e-03
3.14007019e-04 1.53121091e-04 -1.35035465e-03
5.16888178e-04 3.20125672e-04 -1.36110003e-03
5.94119756e-04 2.69871334e-04 -1.30579775e-03
5.16579736e-04 2.46291817e-04 -1.33650847e-03
7.71124630e-04 2.41251501e-04 -1.19322018e-03
8.64160427e-04 1.83186998e-04 -1.10165958e-03
8.98723860e-04 1.28854581e-04 -1.03557100e-03
-1.10819102e-03 4.24279209e-04 -9.55560398e-04
-1.00186891e-03 4.31307766e-04 -1.06447666e-03
-9.57955809e-04 4.93360012e-04 -1.10324865e-03
-8.20811401e-04 4.97850344e-04 -1.20324778e-03
-6.72399178e-04 5.00797533e-04 -1.28635698e-03
-6.43807264e-04 3.40613913e-04 -1.29400007e-03
-5.61761465e-04 3.41586558e-04 -1.32764704e-03
-2.51612499e-04 3.01026310e-04 -1.41082344e-03
-1.71151414e-04 3.39640972e-04 -1.43742808e-03
-1.12955723e-04 2.11051992e-04 -1.41138535e-03
7.06897954e-05 4.55944983e-04 -1.47073960e-03
-2.22802229e-06 1.40035986e-04 -1.38406919e-03
6.12941498e-05 2.90509545e-04 -1.45001888e-03
1.39842953e-04 3.14239919e-04 -1.45183249e-03
3.19240653e-04 3.57695147e-04 -1.43222014e-03
4.47117042e-04 2.17088100e-04 -1.35352823e-03
5.52258055e-04 4.16277089e-04 -1.35844565e-03
8.16346468e-04 3.13388365e-04 -1.19449181e-03
8.40300962e-04 2.39660466e-04 -1.14837148e-03
9.21215194e-04 2.61778038e-04 -1.10496041e-03
9.92920115e-04 2.52154095e-04 -1.04316846e-03
-1.12360440e-03 5.04367676e-04 -9.36024579e-04
-9.05517837e-04 6.04799578e-04 -1.13106154e-03
-8.80662197e-04 4.46364833e-04 -1.16521815e-03
-6.98225820e-04 5.78451270e-04 -1.26859493e-03
-5.11235008e-04 4.86357755e-04 -1.35965724e-03
-5.73359630e-04 4.22651924e-04 -1.33177254e-03
-2.47457048e-04 3.85437120e-04 -1.42934115e-03
-1.71617796e-04 4.24203431e-04 -1.44880996e-03
-9.47863455e-05 3.76013413e-04 -1.45548640e-03
-1.40953845e-05 5.13219854e-04 -1.46766705e-03
6.37865211e-05 5.43843098e-04 -1.46757872e-03
-1.62143314e-05 3.55294495e-04 -1.46278382e-03
1.43296424e-04 4.86372469e-04 -1.46863546e-03
2.98686737e-04 4.96538061e-04 -1.44274989e-03
1.51427281e-04 4.02116148e-04 -1.46544950e-03
4.03475226e-04 3.66624797e-04 -1.40951076e-03
4.77822892e-04 3.90159589e-04 -1.38633843e-03
7.00793476e-04 2.57397360e-04 -1.24530833e-03
8.87750109e-04 3.17120811e-04 -1.14783140e-03
9.74832231e-04 3.22787481e-04 -1.08290095e-03
9.35719092e-04 3.82620384e-04 -1.12583289e-03
-1.13367104e-03 5.85990191e-04 -9.19016139e-04
-1.01741860e-03 5.22457284e-04 -1.04952142e-03
-8.40724473e-04 6.56859900e-04 -1.17081292e-03
-8.99362534e-04 5.21174206e-04 -1.14722883e-03
-5.94643517e-04 5.03219541e-04 -1.32283248e-03
-4.22255265e-04 4.50999178e-04 -1.39141869e-03
-4.08262958e-04 3.73336422e-04 -1.38622354e-03
-3.32939933e-04 4.27721526e-04 -1.41249617e-03
-9.52074847e-05 4.62890566e-04 -1.46199165e-03
-1.72894942e-04 5.11663422e-04 -1.45334799e-03
-9.06594253e-05 5.48257674e-04 -1.46445918e-03
7.01371083e-05 3.71012875e-04 -1.46541258e-03
2.65493775e-04 4.12617070e-04 -1.45025005e-03
3.56306626e-04 4.36861110e-04 -1.42760778e-03
1.95097292e-04 2.51694160e-04 -1.42538595e-03
3.92937508e-04 6.06786184e-04 -1.41218434e-03
4.36146705e-04 4.61929026e-04 -1.40304850e-03
5.87856348e-04 3.46485510e-04 -1.33348734e-03
7.46934069e-04 3.21698262e-04 -1.24122548e-03
8.58988649e-04 3.88745219e-04 -1.18279590e-03
1.03700514e-03 4.70914398e-04 -1.03899027e-03
-1.07460356e-03 5.52956651e-04 -9.87860902e-04
-1.06207791e-03 4.67331104e-04 -1.00574380e-03
-9.06906169e-04 6.88289329e-04 -1.11591533e-03
-7.70346372e-04 5.95622161e-04 -1.22277697e-03
-6.20691650e-04 5.82707044e-04 -1.30686132e-03
-4.44779192e-04 5.27912998e-04 -1.39041298e-03
-3.55233035e-04 5.05125083e-04 -1.41540997e-03
-2.51350218e-04 4.68193970e-04 -1.43629044e-03
-2.83025313e-04 5.41594686e-04 -1.43703648e-03
-2.15035329e-04 5.82175711e-04 -1.45004414e-03
-9.83188613e-06 5.97646966e-04 -1.46289762e-03
1.43089309e-04 5.70459430e-04 -1.46198230e-03
2.17260659e-04 4.71272077e-04 -1.45990154e-03
2.23442975e-04 5.54616962e-04 -1.45274853e-03
3.12570274e-04 5.77521461e-04 -1.43483811e-03
6.03611502e-04 4.81535480e-04 -1.33841229e-03
5.60299498e-04 5.54998183e-04 -1.35620704e-03
6.61894354e-04 3.19312389e-04 -1.28664491e-03
6.41247926e-04 4.05239824e-04 -1.31709489e-03
9.69794046e-04 4.53523853e-04 -1.10166880e-03
9.36786779e-04 5.26722718e-04 -1.12661022e-03
-1.14014324e-03 6.68425997e-04 -8.97503946e-04
-1.02861726e-03 6.12517208e-04 -1.02753592e-03
-9.71249289e-04 6.62584346e-04 -1.06849505e-03
-8.40210945e-04 5.73865584e-04 -1.18409692e-03
-5.36772829e-04 5.66703247e-04 -1.35003180e-03
-3.84959132e-04 5.83020732e-04 -1.41023975e-03
-4.04194611e-04 6.59208118e-04 -1.39674115e-03
-3.17943331e-04 6.15115014e-04 -1.42771839e-03
-2.46638516e-04 6.54914660e-04 -1.43658008e-03
-1.41068475e-04 6.13117432e-04 -1.45946379e-03
-7.04495078e-05 6.52299320e-04 -1.45611846e-03
7.54692996e-05 6.29503685e-04 -1.45866352e-03
1.62996992e-04 6.50485169e-04 -1.44873151e-03
2.46532178e-04 6.30725470e-04 -1.44098379e-03
3.33522762e-04 6.64676445e-04 -1.41839706e-03
5.13212843e-04 4.89403198e-04 -1.37743426e-03
4.60056165e-04 5.57036622e-04 -1.39367888e-03
6.40883883e-04 5.58351258e-04 -1.31980014e-03
7.12597961e-04 3.92040854e-04 -1.27642577e-03
8.98716357e-04 4.59303583e-04 -1.15885547e-03
8.90730529e-04 6.07936414e-04 -1.15990514e-03
-1.08543511e-03 6.38764530e-04 -9.64887317e-04
-1.03376411e-03 6.96968728e-04 -1.00635293e-03
-9.76583131e-04 7.41408816e-04 -1.04425909e-03
-6.36369011e-04 6.66036499e-04 -1.29381342e-03
-5.60908396e-04 6.46427541e-04 -1.33398935e-03
-4.69826174e-04 6.03738711e-04 -1.38001556e-03
-4.23139355e-04 7.35229972e-04 -1.37420075e-03
-3.30440309e-04 6.96571121e-04 -1.41006441e-03
-2.53794930e-04 7.33648490e-04 -1.41613799e-03
-1.67933249e-04 6.86574560e-04 -1.44260228e-03
-9.58905757e-05 7.26094607e-04 -1.43854435e-03
8.96825883e-06 6.84679864e-04 -1.45314780e-03
8.90235423e-05 7.12194489e-04 -1.44259953e-03
1.74144467e-04 7.27948330e-04 -1.43357062e-03
2.55775386e-04 7.08954832e-04 -1.42537837e-03
4.37822997e-04 6.67983327e-04 -1.39030223e-03
4.51998781e-04 7.60285472e-04 -1.36589737e-03
5.10455733e-04 6.19200757e-04 -1.37236464e-03
6.81716857e-04 4.80832857e-04 -1.30117799e-03
7.89490184e-04 3.95829042e-04 -1.23191903e-03
8.63403794e-04 5.40530933e-04 -1.18522866e-03
-1.08894711e-03 7.21931434e-04 -9.40535456e-04
-9.78678526e-04 8.16251201e-04 -1.01190205e-03
-8.49880614e-04 7.38416920e-04 -1.14732686e-03
-7.09303740e-04 6.59642348e-04 -1.25823613e-03
-6.42336210e-04 7.50265780e-04 -1.27968672e-03
-4.89604188e-04 6.76080877e-04 -1.36305839e-03
-5.01200680e-04 7.57143743e-04 -1.34004288e-03
-3.50080407e-04 7.70196307e-04 -1.38268339e-03
-2.73641941e-04 8.06070281e-04 -1.38432950e-03
-1.79074853e-04 7.66054943e-04 -1.41483281e-03
-1.04598148e-04 8.04841578e-04 -1.40937911e-03
-2.46974741e-05 7.53024817e-04 -1.43420038e-03
5.10287587e-05 7.83685058e-04 -1.42616999e-03
1.34538576e-04 7.96839487e-04 -1.41802500e-03
2.23866597e-04 7.95339958e-04 -1.40611252e-03
3.79847635e-04 7.27593541e-04 -1.39563802e-03
5.29391750e-04 7.81238004e-04 -1.33467597e-03
5.10018216e-04 6.99899131e-04 -1.36328165e-03
7.17829564e-04 5.58526992e-04 -1.28130041e-03
8.26816249e-04 4.69996770e-04 -1.21234233e-03
8.64115202e-04 6.89645930e-04 -1.16922006e-03
-1.03769861e-03 7.76735729e-04 -9.71652592e-04
-9.77158623e-04 8.86762656e-04 -9.74346748e-04
[...]
POINT_DATA 20213
SCALARS pressure double 1
LOOKUP_TABLE default
9.86787404e+02
1.19127425e+03
1.09117807e+03
0.00000000e+00
8.33203472e+02
0.00000000e+00
0.00000000e+00
0.00000000e+00
0.00000000e+00
1.10289659e+03
7.50381876e+02
6.96551794e+02
1.14400239e+03
8.13831062e+02
0.00000000e+00
0.00000000e+00
1.45256070e+03
0.00000000e+00
8.43379812e+02
7.64142144e+02
1.91839587e+02
1.24596136e+03
1.17042051e+03
1.05611821e+03
0.00000000e+00
0.00000000e+00
6.41450348e+02
5.94359574e+02
0.00000000e+00
7.86133742e+02
9.32014214e+02
9.58168389e+02
0.00000000e+00
0.00000000e+00
1.23432995e+03
9.51901706e+02
0.00000000e+00
7.93406083e+02
6.58049719e+02
8.40441219e+02
0.00000000e+00
0.00000000e+00
1.21463607e+03
0.00000000e+00
0.00000000e+00
0.00000000e+00
0.00000000e+00
0.00000000e+00
0.00000000e+00
5.09760889e+02
0.00000000e+00
0.00000000e+00
0.00000000e+00
0.00000000e+00
0.00000000e+00
1.45983473e+03
6.92238467e+02
1.51030889e+03
1.25451485e+03
0.00000000e+00
6.29341287e+02
0.00000000e+00
0.00000000e+00
0.00000000e+00
1.02133935e+03
0.00000000e+00
0.00000000e+00
0.00000000e+00
7.17242656e+02
0.00000000e+00
0.00000000e+00
8.57028363e+02
1.03646887e+03
1.25762098e+03
9.37069661e+02
0.00000000e+00
0.00000000e+00
0.00000000e+00
1.12475607e+03
1.57372305e+03
0.00000000e+00
0.00000000e+00
0.00000000e+00
0.00000000e+00
0.00000000e+00
0.00000000e+00
0.00000000e+00
0.00000000e+00
0.00000000e+00
0.00000000e+00
0.00000000e+00
0.00000000e+00
1.01022839e+03
0.00000000e+00
1.17843357e+03
0.00000000e+00
1.54111776e+03
1.32365776e+03
1.22506867e+03
1.44133357e+03
1.56170993e+03
0.00000000e+00
0.00000000e+00
0.00000000e+00
0.00000000e+00
0.00000000e+00
8.20951511e+02
0.00000000e+00
0.00000000e+00
0.00000000e+00
6.08926865e+02
5.99582117e+02
0.00000000e+00
0.00000000e+00
0.00000000e+00
0.00000000e+00
9.01860302e+02
0.00000000e+00
1.29108271e+03
0.00000000e+00
0.00000000e+00
1.44984718e+03
1.55723702e+03
8.81921782e+02
9.37476784e+02
6.40337705e+02
7.36614817e+02
9.81347138e+02
0.00000000e+00
0.00000000e+00
0.00000000e+00
7.32602881e+02
0.00000000e+00
0.00000000e+00
0.00000000e+00
0.00000000e+00
9.10950129e+02
1.55552097e+03
1.34544923e+03
1.58755150e+03
0.00000000e+00
1.40165106e+03
1.21130196e+03
0.00000000e+00
1.46284561e+03
0.00000000e+00
9.70524918e+02
4.95525399e+02
6.04180571e+02
0.00000000e+00
0.00000000e+00
0.00000000e+00
7.19375048e+02
8.10334182e+02
0.00000000e+00
0.00000000e+00
0.00000000e+00
0.00000000e+00
1.15184647e+03
1.37361775e+03
1.36005542e+03
1.14295445e+03
0.00000000e+00
1.12594213e+03
1.15369380e+03
0.00000000e+00
9.33950209e+02
0.00000000e+00
6.74662968e+02
0.00000000e+00
0.00000000e+00
6.19235847e+02
7.78907112e+02
8.08913436e+02
0.00000000e+00
0.00000000e+00
0.00000000e+00
0.00000000e+00
9.79544759e+02
0.00000000e+00
1.12396076e+03
9.09354212e+02
1.14906333e+03
8.78159906e+02
0.00000000e+00
0.00000000e+00
1.28796468e+03
1.07674411e+03
1.24484542e+03
0.00000000e+00
0.00000000e+00
0.00000000e+00
0.00000000e+00
0.00000000e+00
8.88440932e+02
0.00000000e+00
0.00000000e+00
0.00000000e+00
0.00000000e+00
8.93574723e+02
1.09221500e+03
8.85053162e+02
0.00000000e+00
0.00000000e+00
1.01318847e+03
0.00000000e+00
0.00000000e+00
1.19500775e+03
1.21248011e+03
1.24819313e+03
0.00000000e+00
0.00000000e+00
0.00000000e+00
6.79660416e+02
7.77923753e+02
8.83745242e+02
0.00000000e+00
8.38905905e+02
0.00000000e+00
7.97776020e+02
8.47618719e+02
8.35808536e+02
9.47269979e+02
0.00000000e+00
0.00000000e+00
8.63729415e+02
0.00000000e+00
0.00000000e+00
0.00000000e+00
1.14856132e+03
1.33723320e+03
0.00000000e+00
0.00000000e+00
0.00000000e+00
7.48950763e+02
0.00000000e+00
1.04508878e+03
0.00000000e+00
9.49997820e+02
9.08358730e+02
7.73395278e+02
8.60922286e+02
0.00000000e+00
0.00000000e+00
0.00000000e+00
0.00000000e+00
0.00000000e+00
0.00000000e+00
7.88644551e+02
8.99549002e+02
1.26792299e+03
0.00000000e+00
0.00000000e+00
0.00000000e+00
0.00000000e+00
0.00000000e+00
9.93185292e+02
1.15333206e+03
1.07910901e+03
9.98987992e+02
0.00000000e+00
8.86394682e+02
8.39214795e+02
0.00000000e+00
0.00000000e+00
0.00000000e+00
0.00000000e+00
0.00000000e+00
0.00000000e+00
0.00000000e+00
1.03238348e+03
1.03020721e+03
1.13545380e+03
5.28896266e+02
0.00000000e+00
0.00000000e+00
8.06853806e+02
1.05367969e+03
1.09701159e+03
1.12779400e+03
0.00000000e+00
0.00000000e+00
6.89538690e+02
7.53483189e+02
8.05116044e+02
0.00000000e+00
0.00000000e+00
0.00000000e+00
0.00000000e+00
7.83772852e+02
8.80160854e+02
0.00000000e+00
0.00000000e+00
9.21158787e+02
0.00000000e+00
8.97885696e+02
7.26507460e+02
0.00000000e+00
9.11793918e+02
1.03131670e+03
0.00000000e+00
0.00000000e+00
0.00000000e+00
0.00000000e+00
6.00732020e+02
0.00000000e+00
0.00000000e+00
0.00000000e+00
7.72238279e+02
8.28477557e+02
0.00000000e+00
0.00000000e+00
0.00000000e+00
0.00000000e+00
9.08771176e+02
0.00000000e+00
0.00000000e+00
0.00000000e+00
0.00000000e+00
0.00000000e+00
1.13958721e+03
1.10360451e+03
0.00000000e+00
7.78242261e+02
0.00000000e+00
0.00000000e+00
0.00000000e+00
0.00000000e+00
7.23698071e+02
7.83367073e+02
7.50680683e+02
1.00250548e+03
0.00000000e+00
0.00000000e+00
0.00000000e+00
9.11839002e+02
0.00000000e+00
1.09309837e+03
1.01121847e+03
1.03737003e+03
1.17287292e+03
1.15602787e+03
1.18889462e+03
0.00000000e+00
0.00000000e+00
0.00000000e+00
0.00000000e+00
0.00000000e+00
7.84161831e+02
0.00000000e+00
0.00000000e+00
0.00000000e+00
0.00000000e+00
0.00000000e+00
0.00000000e+00
0.00000000e+00
0.00000000e+00
7.14052476e+02
1.13814247e+03
9.95853292e+02
1.06743509e+03
0.00000000e+00
1.26790864e+03
1.19063781e+03
1.26826821e+03
0.00000000e+00
1.04877295e+03
0.00000000e+00
0.00000000e+00
9.03002134e+02
8.01407864e+02
8.37542192e+02
0.00000000e+00
0.00000000e+00
0.00000000e+00
8.36696213e+02
0.00000000e+00
0.00000000e+00
0.00000000e+00
8.29743079e+02
1.04045156e+03
0.00000000e+00
1.09534166e+03
0.00000000e+00
1.23077029e+03
1.32694477e+03
1.31554144e+03
1.07502217e+03
1.12482945e+03
1.09040900e+03
0.00000000e+00
0.00000000e+00
7.91869263e+02
0.00000000e+00
8.10448529e+02
0.00000000e+00
1.08019829e+03
1.02255336e+03
0.00000000e+00
0.00000000e+00
0.00000000e+00
9.87890811e+02
6.88263961e+02
0.00000000e+00
7.38624991e+02
1.37197501e+03
1.39331353e+03
1.35435175e+03
1.37102343e+03
0.00000000e+00
1.16170489e+03
9.86017266e+02
8.79079732e+02
7.26964528e+02
7.22414734e+02
8.12105208e+02
0.00000000e+00
1.01483971e+03
1.12155934e+03
9.96831916e+02
0.00000000e+00
0.00000000e+00
6.73920583e+02
0.00000000e+00
0.00000000e+00
8.62675759e+02
1.43012204e+03
1.38278083e+03
0.00000000e+00
1.07234362e+03
0.00000000e+00
1.04437441e+03
9.10199842e+02
8.58615660e+02
7.03914868e+02
0.00000000e+00
0.00000000e+00
0.00000000e+00
9.80381353e+02
9.68252382e+02
0.00000000e+00
0.00000000e+00
1.06471785e+03
1.24390330e+03
1.09885218e+03
8.87811914e+02
0.00000000e+00
6.39966914e+02
0.00000000e+00
0.00000000e+00
1.19568874e+03
1.27754079e+03
1.16086835e+03
1.02203649e+03
8.34927523e+02
7.71195267e+02
1.25830624e+03
0.00000000e+00
1.31173255e+03
1.25638934e+03
0.00000000e+00
0.00000000e+00
0.00000000e+00
1.37179304e+03
3.11193247e+02
1.74239078e+03
9.14936687e+02
1.27005235e+03
1.24699843e+03
1.14465037e+03
9.43845601e+02
1.31638641e+03
2.10515959e+03
1.99443203e+03
9.81670607e+02
2.18895705e+03
1.57498787e+03
1.16446714e+03
1.19420399e+03
1.06284493e+03
1.33078130e+03
1.24258997e+03
0.00000000e+00
1.11566315e+03
7.72049005e+02
1.03796322e+03
1.45131294e+03
8.18997063e+02
2.05253921e+03
1.46121053e+03
5.34163750e+02
9.63115551e+02
7.47388536e+02
1.01757747e+03
1.09359189e+03
1.13284484e+03
0.00000000e+00
1.95316231e+03
1.02286706e+03
9.82339191e+02
1.13884313e+03
1.41596090e+03
1.27762230e+03
0.00000000e+00
0.00000000e+00
3.23464565e+02
2.22980874e+03
1.74835777e+03
1.22311304e+03
2.65891873e+03
1.21446460e+03
1.13852642e+03
9.94495626e+02
2.27977125e+03
1.02271421e+03
1.34679958e+03
1.16085369e+03
1.33467516e+03
1.03529670e+03
8.70814229e+02
1.34210099e+03
1.80122069e+03
1.28040881e+03
1.34247805e+03
0.00000000e+00
9.71392442e+02
8.71683975e+02
1.26733670e+03
1.32449690e+03
2.33006262e+03
1.66646950e+03
1.11584874e+03
9.28216754e+02
1.00937852e+03
1.33166213e+03
1.59675283e+03
2.48767931e+03
1.24605062e+03
2.34412908e+03
1.15558326e+03
1.65343282e+03
1.17879288e+03
1.10299969e+03
1.30641162e+03
1.12104958e+03
0.00000000e+00
0.00000000e+00
2.44041625e+03
6.39360364e+02
1.04567507e+03
2.32124014e+03
0.00000000e+00
1.87122224e+03
1.33090595e+03
9.31291599e+02
9.25190072e+02
1.91836779e+03
8.70703234e+02
1.28110399e+03
1.15213803e+03
1.34271286e+03
1.26046192e+03
1.36577497e+03
1.18196545e+03
9.43956399e+02
1.35559129e+03
6.66606238e+02
6.86090772e+02
1.60698834e+03
1.23328602e+03
1.25632002e+03
1.47002205e+03
1.07902325e+03
1.44849043e+03
1.29693505e+03
1.02429986e+03
2.39456999e+03
8.54923162e+02
1.39452559e+03
2.28210583e+03
1.11122446e+03
9.61151259e+02
1.26327968e+03
1.21408527e+03
9.31513777e+02
9.83310750e+02
1.03441682e+03
0.00000000e+00
7.16894976e+02
7.86765932e+02
0.00000000e+00
1.31001191e+03
1.34399588e+03
1.54669443e+03
1.08263840e+03
1.80532116e+03
1.74830188e+03
1.43017504e+03
1.29565097e+03
1.16492867e+03
2.31093007e+03
1.14365911e+03
1.28735129e+03
1.49112864e+03
9.89364871e+02
1.08936327e+03
1.26017875e+03
1.03799955e+03
9.50407930e+02
0.00000000e+00
2.13128043e+03
0.00000000e+00
1.24366822e+03
2.39105143e+03
1.41725743e+03
1.31579265e+03
1.66372043e+03
1.30750014e+03
1.69130990e+03
1.29510810e+03
2.25515877e+03
2.45298061e+03
1.18922995e+03
1.00717137e+03
1.03438965e+03
1.84920703e+03
1.96723161e+03
1.35818398e+03
1.23052678e+03
1.00043499e+03
0.00000000e+00
2.05718012e+03
0.00000000e+00
1.17260391e+03
1.21931783e+03
1.22983337e+03
1.04498981e+03
1.25889157e+03
1.51185279e+03
1.14444735e+03
1.18387148e+03
1.11144686e+03
1.87541734e+03
9.65648622e+02
9.37351183e+02
1.01394123e+03
1.01239754e+03
1.25318926e+03
0.00000000e+00
1.11322954e+03
0.00000000e+00
0.00000000e+00
1.61307355e+03
0.00000000e+00
1.34222311e+03
1.26862289e+03
1.34946685e+03
1.33406033e+03
1.34568493e+03
1.38746831e+03
1.47539896e+03
1.31278442e+03
1.69156937e+03
1.53519580e+03
1.64185499e+03
1.01708605e+03
9.94849737e+02
1.46302628e+03
2.18588303e+03
0.00000000e+00
1.27546147e+03
1.03963095e+03
0.00000000e+00
9.75434690e+02
6.45235109e+02
1.15409767e+03
1.16935371e+03
1.33064437e+03
1.23255185e+03
1.04991541e+03
2.36475822e+03
1.41603012e+03
2.07006261e+03
1.33877535e+03
1.28416884e+03
1.11008586e+03
1.34003272e+03
1.00676141e+03
1.05649987e+03
1.17167421e+03
9.09585722e+02
9.19958151e+02
1.01497142e+03
0.00000000e+00
1.58626760e+03
0.00000000e+00
1.35192890e+03
1.73310313e+03
1.22692132e+03
1.46635947e+03
1.70463187e+03
2.54827068e+03
1.36215284e+03
1.43142468e+03
1.99373296e+03
2.26279086e+03
2.16580500e+03
9.85575264e+02
1.14259968e+03
1.19654089e+03
1.96837083e+03
0.00000000e+00
1.50616876e+03
0.00000000e+00
0.00000000e+00
8.50493291e+02
0.00000000e+00
1.41464467e+03
1.11150255e+03
1.25393752e+03
1.39449126e+03
1.45900743e+03
1.73896183e+03
1.42616458e+03
1.39135909e+03
1.34839991e+03
1.32047770e+03
9.41789481e+02
1.07141007e+03
1.20586225e+03
1.20777855e+03
1.28185224e+03
1.04588114e+03
1.11713477e+03
8.98773100e+02
0.00000000e+00
8.75496089e+02
7.26967370e+02
1.19738965e+03
1.43114760e+03
1.27592425e+03
1.66639653e+03
2.13321167e+03
1.42428874e+03
1.28722376e+03
1.73490150e+03
1.26091150e+03
1.13256337e+03
1.18193639e+03
1.25079927e+03
1.28996824e+03
1.78640120e+03
1.06520063e+03
1.15762171e+03
1.14510962e+03
9.69904624e+02
0.00000000e+00
9.50146568e+02
1.12148279e+03
8.90832262e+02
1.00560495e+03
1.11500765e+03
1.21643102e+03
1.34004626e+03
1.39234583e+03
1.44975220e+03
1.32848038e+03
1.49762296e+03
1.23843779e+03
1.17859033e+03
9.57765609e+02
9.46588101e+02
1.55188617e+03
1.08096077e+03
1.27015350e+03
1.11276602e+03
9.90585827e+02
0.00000000e+00
1.48657581e+03
1.62225138e+03
7.34220141e+02
2.41033225e+03
1.13610994e+03
1.22945382e+03
1.46387395e+03
1.44158888e+03
1.38917518e+03
9.82539749e+02
1.12492452e+03
1.38316325e+03
1.18944672e+03
2.13951407e+03
1.22991795e+03
2.40247838e+03
1.20319343e+03
1.62221091e+03
8.63258638e+02
8.41748627e+02
0.00000000e+00
8.45041122e+02
6.87868191e+02
1.09879272e+03
8.57280005e+02
1.73959944e+03
1.32839967e+03
1.19395883e+03
1.40700482e+03
1.13448220e+03
1.18440538e+03
9.52039696e+02
2.09152691e+03
1.66088409e+03
1.13263915e+03
9.40136298e+02
1.12984758e+03
1.32749029e+03
1.00592055e+03
9.14817047e+02
9.94987220e+02
0.00000000e+00
1.06354024e+03
6.58938624e+02
7.13101690e+02
1.56330275e+03
1.16230146e+03
8.77013980e+02
0.00000000e+00
1.26707982e+03
8.77523808e+02
1.20596843e+03
1.01567143e+03
1.10981445e+03
9.88560713e+02
9.00089534e+02
1.13781216e+03
1.15231021e+03
9.81857607e+02
8.82632814e+02
1.34702577e+03
9.05608996e+02
0.00000000e+00
1.92051860e+03
5.70162368e+02
1.44622483e+03
6.59660695e+02
1.39742401e+03
1.15231104e+03
1.02350541e+03
1.16177759e+03
9.08331388e+02
1.57130007e+03
1.14495963e+03
1.77038914e+03
8.03478291e+02
8.17885082e+02
8.84285110e+02
8.58300134e+02
1.22972505e+03
1.16688119e+03
1.87966962e+03
8.36519053e+02
0.00000000e+00
0.00000000e+00
0.00000000e+00
0.00000000e+00
0.00000000e+00
0.00000000e+00
0.00000000e+00
1.34639255e+03
1.14533533e+03
0.00000000e+00
7.64075328e+02
0.00000000e+00
0.00000000e+00
0.00000000e+00
0.00000000e+00
0.00000000e+00
7.56465525e+02
0.00000000e+00
8.87411868e+02
9.30147775e+02
0.00000000e+00
0.00000000e+00
8.39630684e+02
1.14463357e+03
0.00000000e+00
6.54950777e+02
8.42845517e+02
0.00000000e+00
0.00000000e+00
5.71298933e+02
1.00934207e+03
1.17751339e+03
1.40720419e+03
7.38405727e+02
7.14843864e+02
8.76030242e+02
3.64965143e+02
1.21947528e+03
1.08246462e+03
0.00000000e+00
0.00000000e+00
0.00000000e+00
0.00000000e+00
1.05014243e+03
6.22182192e+02
1.92195307e+02
1.19455003e+03
4.78800166e+02
1.17989077e+03
9.06572684e+02
1.58625180e+03
0.00000000e+00
1.03419260e+03
1.17727256e+03
9.37784021e+02
0.00000000e+00
8.35878196e+02
1.24465503e+03
1.82690057e+03
1.40762167e+03
1.32345929e+03
1.14678767e+03
0.00000000e+00
0.00000000e+00
6.95918535e+02
2.38711826e+03
1.78667556e+03
2.52776810e+03
1.19088168e+03
2.12809466e+03
1.25542191e+03
2.26556654e+03
1.07129944e+03
1.26963754e+03
2.23207961e+03
2.18319275e+03
1.24022110e+03
1.26528063e+03
1.52692764e+03
1.72224447e+03
6.24238023e+02
1.02957446e+03
1.25204165e+03
0.00000000e+00
0.00000000e+00
4.21658763e+02
1.16568222e+03
1.09574018e+03
1.21716290e+03
0.00000000e+00
1.40419371e+03
8.02182854e+02
2.24047998e+03
9.77263301e+02
9.83115934e+02
1.33911733e+03
1.23529537e+03
1.61930647e+03
1.44637531e+03
1.13466560e+03
1.91769659e+03
1.41879903e+03
1.07589136e+03
2.13240963e+03
0.00000000e+00
8.26252030e+02
1.18230882e+03
1.66551263e+03
1.08086461e+03
1.82849494e+03
2.26743427e+03
8.15140278e+02
1.30157623e+03
8.07191304e+02
1.66226373e+03
1.19033532e+03
1.27681724e+03
1.33535293e+03
1.26544788e+03
2.32452202e+03
1.25290105e+03
1.08850570e+03
1.44775551e+03
1.79225724e+03
1.64754566e+03
0.00000000e+00
8.32458654e+02
1.44708379e+03
2.26051268e+03
1.37024205e+03
2.00492268e+03
1.91372844e+03
1.05440122e+03
9.94325895e+02
1.47358454e+03
1.30391753e+03
1.19173810e+03
1.65151060e+03
2.21537225e+03
1.09274613e+03
1.43472583e+03
2.04851632e+03
1.68138971e+03
2.11004827e+03
1.66091862e+03
8.41951553e+02
0.00000000e+00
0.00000000e+00
1.48867877e+03
2.66501767e+03
9.77180439e+02
2.02916519e+03
1.21203065e+03
1.26364169e+03
1.43267526e+03
1.95970300e+03
1.82792148e+03
1.48436583e+03
1.05416839e+03
1.92938416e+03
1.01111466e+03
1.36517993e+03
2.28640895e+03
1.74104379e+03
1.69180786e+03
1.97147497e+03
1.23248563e+03
8.23923794e+02
0.00000000e+00
0.00000000e+00
2.36256642e+03
2.01892442e+03
1.79941800e+03
1.74514438e+03
1.24911293e+03
2.03129855e+03
1.03532033e+03
1.23610644e+03
1.81863183e+03
1.39439211e+03
1.36693008e+03
1.92409823e+03
1.80414280e+03
1.16774902e+03
1.67018981e+03
1.94606056e+03
1.71211390e+03
0.00000000e+00
0.00000000e+00
0.00000000e+00
0.00000000e+00
1.32624713e+03
1.11053477e+03
2.13403722e+03
1.18533838e+03
2.43858330e+03
1.18264361e+03
1.78057403e+03
1.52658197e+03
1.51353886e+03
1.44778368e+03
1.88702849e+03
2.32658834e+03
2.15707556e+03
8.61935978e+02
2.35351623e+03
1.42799574e+03
2.03397032e+03
0.00000000e+00
0.00000000e+00
8.79490576e+02
0.00000000e+00
2.13654370e+03
9.57308109e+02
2.34386574e+03
2.51601341e+03
1.89210641e+03
1.44304835e+03
1.01295548e+03
1.54620614e+03
1.14501436e+03
2.50493667e+03
1.56507704e+03
1.34065197e+03
1.25628392e+03
1.84196250e+03
1.23566083e+03
1.22973472e+03
1.98155085e+03
7.97900655e+02
8.40471647e+02
0.00000000e+00
0.00000000e+00
1.58827241e+03
1.10751440e+03
1.98759153e+03
1.58550104e+03
1.49741867e+03
1.44383036e+03
2.55353418e+03
2.50678770e+03
1.29925475e+03
2.36512405e+03
7.71208513e+02
1.99081016e+03
1.54243937e+03
1.51948515e+03
1.15373240e+03
1.15974387e+03
1.39876395e+03
1.03203225e+03
9.40982571e+02
0.00000000e+00
4.18651879e+02
2.69632264e+03
1.25990479e+03
1.73756957e+03
1.39183691e+03
1.44502626e+03
8.20205184e+02
2.35206339e+03
2.42688848e+03
1.62079386e+03
1.44712732e+03
1.04717978e+03
2.47964366e+03
1.18173538e+03
1.32120416e+03
1.19776085e+03
1.27567818e+03
2.20839520e+03
1.06417623e+03
9.77394293e+02
0.00000000e+00
0.00000000e+00
2.80331554e+03
1.08527179e+03
2.44626121e+03
2.18184851e+03
2.58986509e+03
2.07603658e+03
2.60518379e+03
1.97520099e+03
1.68229610e+03
2.10693630e+03
7.96252307e+02
1.55569568e+03
2.17142069e+03
2.20866126e+03
2.38969151e+03
1.23934314e+03
2.32126918e+03
1.06623202e+03
0.00000000e+00
0.00000000e+00
0.00000000e+00
2.61975761e+03
1.06860561e+03
2.63276959e+03
1.52654798e+03
1.45924397e+03
2.30938187e+03
1.44485074e+03
1.63822669e+03
9.27896863e+02
2.36090532e+03
2.53432839e+03
1.87684486e+03
1.01839418e+03
1.17079141e+03
2.17510590e+03
1.41910990e+03
1.08136024e+03
1.00228196e+03
1.02524399e+03
0.00000000e+00
2.36796176e+03
2.08790856e+03
1.59006704e+03
2.35400228e+03
1.79044229e+03
1.43690568e+03
1.25849901e+03
1.99122027e+03
1.63937797e+03
1.45485744e+03
1.77289754e+03
2.50323826e+03
1.04943026e+03
1.93999295e+03
2.20041287e+03
7.18006604e+02
1.27392235e+03
1.87131185e+03
9.95483378e+02
0.00000000e+00
0.00000000e+00
1.46110706e+03
2.34741122e+03
2.01643623e+03
2.73115096e+03
2.46543637e+03
2.07752535e+03
1.45272290e+03
2.52879173e+03
1.72482711e+03
9.89054113e+02
2.59897425e+03
2.52387925e+03
1.39810410e+03
1.62794811e+03
2.39417945e+03
2.38616563e+03
1.51898573e+03
1.24283085e+03
9.56156030e+02
9.44855513e+02
3.23671188e+02
2.17219817e+03
1.95430926e+03
2.42668464e+03
2.62684619e+03
2.79598550e+03
1.84852220e+03
1.36066929e+03
1.75194554e+03
2.11177550e+03
2.61211278e+03
1.43359332e+03
2.27316931e+03
1.25876014e+03
2.49724834e+03
1.51058973e+03
2.57287841e+03
1.81672804e+03
2.56943558e+03
1.09652671e+03
0.00000000e+00
4.78606858e+02
5.28631434e+02
1.05423460e+03
9.98193552e+02
2.75050498e+03
2.08603875e+03
2.16569807e+03
1.70607470e+03
1.10159667e+03
9.28880668e+02
1.12834788e+03
8.40765455e+02
8.58467335e+02
1.14486614e+03
1.45751743e+03
2.07854689e+03
2.08734099e+03
1.69740749e+03
1.46145525e+03
1.11086297e+03
0.00000000e+00
4.34398169e+02
9.32091996e+02
2.09646549e+03
2.05785931e+03
1.54910507e+03
2.66032337e+03
1.30843050e+03
1.78174755e+03
2.69938936e+03
2.60381643e+03
2.67084164e+03
2.35737950e+03
2.51382964e+03
1.36163749e+03
1.39186046e+03
1.80992453e+03
2.08598133e+03
2.21584054e+03
2.49193922e+03
1.12414670e+03
0.00000000e+00
5.26614659e+02
9.27731703e+02
6.46173879e+02
1.58423878e+03
1.87390183e+03
1.80663835e+03
1.41320409e+03
0.00000000e+00
0.00000000e+00
0.00000000e+00
0.00000000e+00
0.00000000e+00
0.00000000e+00
0.00000000e+00
1.14044543e+03
1.11134538e+03
1.45827064e+03
1.01016130e+03
1.83608772e+03
8.65037693e+02
0.00000000e+00
0.00000000e+00
0.00000000e+00
0.00000000e+00
0.00000000e+00
4.65868419e+02
9.32179163e+02
0.00000000e+00
1.31131073e+03
1.14527619e+03
9.76721211e+02
0.00000000e+00
0.00000000e+00
0.00000000e+00
0.00000000e+00
0.00000000e+00
7.53036013e+02
0.00000000e+00
7.35559007e+02
7.07245575e+02
0.00000000e+00
0.00000000e+00
7.50777076e+02
5.82459840e+02
1.03158142e+03
2.00788218e+03
9.03737200e+02
1.11964783e+03