# vtk DataFile Version 3.0
MPS 3D Simulation Step 2900
ASCII
DATASET UNSTRUCTURED_GRID
POINTS 20213 double
-9.54654689e-04 3.40590049e-04 -9.41671226e-04
-8.57990686e-04 3.12149341e-04 -1.02399316e-03
-7.79966656e-04 3.19838170e-04 -1.08519393e-03
-7.76512061e-04 4.09950808e-04 -1.10989486e-03
-6.53045341e-04 3.12379887e-04 -1.16196944e-03
-5.87289180e-04 4.37568425e-04 -1.22332408e-03
-4.18670265e-04 2.22826948e-04 -1.23737418e-03
-3.53251028e-04 2.51882992e-04 -1.26860858e-03
-2.68146424e-04 1.25288135e-04 -1.21944132e-03
-1.60859301e-04 5.76821717e-04 -1.16932434e-03
9.60557056e-06 3.12889227e-04 -1.22375410e-03
-7.97230013e-05 3.51099333e-04 -1.23514603e-03
-3.93744803e-05 1.19347983e-04 -1.24266001e-03
1.54287682e-04 1.18380208e-04 -1.21902236e-03
2.35771030e-04 1.50883222e-04 -1.21871840e-03
4.79487359e-04 1.85464304e-04 -1.16052000e-03
4.88623154e-04 2.16089832e-04 -1.04977955e-03
5.54854912e-04 1.89765890e-04 -1.12926526e-03
6.87062117e-04 1.26880273e-04 -9.97589692e-04
7.98650170e-04 2.93708059e-04 -9.09283997e-04
9.59023411e-04 1.41755539e-04 -8.13258110e-04
-9.03819793e-04 3.64614153e-04 -1.00111795e-03
-8.37213207e-04 3.87125618e-04 -1.06036691e-03
-8.35149251e-04 4.70651157e-04 -1.07288977e-03
-6.55071954e-04 3.99612441e-04 -1.18102040e-03
-6.43034797e-04 5.84889095e-04 -1.20559334e-03
-6.51684794e-04 4.94287220e-04 -1.19425404e-03
-5.16760773e-04 4.45816751e-04 -1.25876735e-03
-3.70405744e-04 3.33859760e-04 -1.29050894e-03
-2.16665025e-04 2.37528780e-04 -1.29501161e-03
-1.23412281e-04 1.99271531e-04 -1.28711958e-03
4.11333836e-05 1.49119394e-04 -1.25868806e-03
1.22200719e-04 1.74158385e-04 -1.26514131e-03
3.22964005e-04 3.15880239e-04 -1.28049809e-03
3.26283022e-04 4.22253486e-04 -1.30187135e-03
3.57742615e-04 2.50757682e-04 -1.24741382e-03
4.41080322e-04 2.42164641e-04 -1.21218955e-03
5.21975047e-04 2.54137684e-04 -1.18219929e-03
5.18909233e-04 1.23524644e-04 -1.07378934e-03
6.00122919e-04 2.79356551e-04 -1.15956253e-03
7.49299311e-04 2.29636332e-04 -1.05059873e-03
9.39798339e-04 1.89767880e-04 -8.77621021e-04
-8.99363722e-04 4.45068775e-04 -1.01776426e-03
-8.77826395e-04 5.31986900e-04 -1.04696638e-03
-8.67137896e-04 6.29088821e-04 -1.06342684e-03
-7.21510194e-04 3.51920151e-04 -1.13369813e-03
-7.12924752e-04 4.46538934e-04 -1.15451388e-03
-5.81758518e-04 5.24156499e-04 -1.23463137e-03
-4.37077615e-04 3.03709115e-04 -1.25839450e-03
-5.12327055e-04 3.64140455e-04 -1.24662391e-03
-2.97119266e-04 3.66878078e-04 -1.31508205e-03
-1.40543054e-04 2.74951680e-04 -1.31770927e-03
7.34885324e-06 4.49478343e-04 -1.36396176e-03
1.17774951e-04 2.52957168e-04 -1.29897133e-03
2.55833555e-04 3.52011325e-04 -1.30461928e-03
3.84180483e-04 3.69406450e-04 -1.28003023e-03
3.10655782e-04 1.89711113e-04 -1.23018134e-03
4.82241230e-04 3.82777530e-04 -1.25024303e-03
5.82799599e-04 3.46322471e-04 -1.19526041e-03
5.07125998e-04 3.19484753e-04 -1.22045197e-03
6.96033031e-04 2.71317530e-04 -1.10219124e-03
7.63247400e-04 1.74488599e-04 -9.98776771e-04
8.29010383e-04 1.52643107e-04 -9.38528677e-04
-1.01010548e-03 5.03057091e-04 -9.16302125e-04
-9.48187532e-04 5.08485520e-04 -9.84361307e-04
-8.12254387e-04 5.65632933e-04 -1.09514047e-03
-7.10954745e-04 5.46288383e-04 -1.15948653e-03
-5.09932878e-04 5.35451867e-04 -1.26970917e-03
-4.40468371e-04 3.90896140e-04 -1.28009348e-03
-3.65921649e-04 4.17527352e-04 -1.30539520e-03
-2.18894120e-04 3.20969842e-04 -1.32196244e-03
-1.38605885e-04 3.56128824e-04 -1.33990968e-03
-6.04866078e-05 2.64068874e-04 -1.31705945e-03
7.59979363e-05 4.81615134e-04 -1.36302187e-03
6.24557893e-05 1.21644200e-04 -1.17088331e-03
9.93619175e-05 3.23571362e-04 -1.32697421e-03
1.75420116e-04 3.63726443e-04 -1.32492624e-03
2.50314474e-04 4.43012345e-04 -1.32151250e-03
4.21795540e-04 3.09573344e-04 -1.24862464e-03
4.93031404e-04 4.70997664e-04 -1.26309924e-03
7.44045527e-04 3.39011351e-04 -1.09849548e-03
7.91648201e-04 2.90456745e-04 -1.04946708e-03
8.23008336e-04 2.29776994e-04 -9.93354988e-04
9.18259203e-04 2.86387443e-04 -9.48212628e-04
-1.04883288e-03 5.73915790e-04 -8.79090541e-04
-8.12266695e-04 6.67811398e-04 -1.10076014e-03
-7.70324846e-04 4.97146001e-04 -1.12192854e-03
-5.68088224e-04 6.12153528e-04 -1.24464801e-03
-4.26340812e-04 5.61580116e-04 -1.29628677e-03
-4.43169213e-04 4.77443871e-04 -1.28790390e-03
-2.21891627e-04 4.00834220e-04 -1.33815225e-03
-1.54315595e-04 4.40202155e-04 -1.35578764e-03
-7.50289121e-05 4.20137990e-04 -1.35936649e-03
6.71053371e-06 5.38486208e-04 -1.36857629e-03
7.48905009e-05 5.80671559e-04 -1.36504674e-03
2.26186447e-05 3.73008635e-04 -1.34933460e-03
1.41175075e-04 5.22467566e-04 -1.35533963e-03
3.01765243e-04 5.93760553e-04 -1.32625285e-03
1.74164195e-04 4.48166765e-04 -1.34074950e-03
3.76551036e-04 5.00050191e-04 -1.30100195e-03
4.21839885e-04 4.34735510e-04 -1.28281170e-03
6.67225727e-04 3.37875791e-04 -1.14604336e-03
8.24743257e-04 3.59531998e-04 -1.05056946e-03
8.66153886e-04 3.09769670e-04 -9.99970127e-04
8.71854601e-04 4.22691254e-04 -1.02630638e-03
-1.05738204e-03 6.75321306e-04 -8.81772777e-04
-9.23803277e-04 5.89287829e-04 -1.01578219e-03
-7.48734316e-04 7.08350271e-04 -1.13789464e-03
-7.56250887e-04 6.11562029e-04 -1.13600415e-03
-4.90702410e-04 6.18711551e-04 -1.27915484e-03
-2.86809772e-04 5.50207590e-04 -1.33580977e-03
-2.86343893e-04 4.59082463e-04 -1.32856915e-03
-2.12077989e-04 5.01778620e-04 -1.35034496e-03
-6.93069406e-05 4.98339402e-04 -1.36827811e-03
-6.23038280e-05 5.90583669e-04 -1.37017789e-03
1.31133820e-05 6.37336962e-04 -1.36823216e-03
9.91173943e-05 4.04867671e-04 -1.34814889e-03
2.18613069e-04 5.42408967e-04 -1.33979489e-03
2.96473577e-04 5.12031096e-04 -1.32057536e-03
2.00210650e-04 2.86674743e-04 -1.29532923e-03
4.47625070e-04 6.46336464e-04 -1.28673186e-03
4.49713752e-04 5.39144582e-04 -1.28499004e-03
5.59176237e-04 4.22558410e-04 -1.22370282e-03
7.18757578e-04 4.10209923e-04 -1.13664707e-03
7.91629817e-04 4.23297149e-04 -1.09011783e-03
9.46851696e-04 4.45593138e-04 -9.70532242e-04
-1.01324444e-03 6.39322041e-04 -9.33185248e-04
-9.85707074e-04 5.73571718e-04 -9.55126828e-04
-8.24021816e-04 7.44670980e-04 -1.08406698e-03
-6.31305113e-04 6.71152557e-04 -1.21362720e-03
-5.61191309e-04 6.97205407e-04 -1.24981302e-03
-3.50907832e-04 6.02250346e-04 -1.31920555e-03
-2.00963442e-04 5.89037128e-04 -1.35324104e-03
-1.34877817e-04 5.39668383e-04 -1.36413080e-03
-1.32932017e-04 6.38532570e-04 -1.36713981e-03
-6.26273956e-05 6.84242540e-04 -1.36761222e-03
9.15083579e-05 6.78698277e-04 -1.36251142e-03
1.48756014e-04 6.10939698e-04 -1.35828633e-03
2.24619647e-04 6.30265836e-04 -1.34489561e-03
2.85704555e-04 6.80053332e-04 -1.33264126e-03
3.66227375e-04 6.64046114e-04 -1.31211737e-03
5.54924708e-04 5.19423470e-04 -1.24479694e-03
5.94416271e-04 5.95715638e-04 -1.23318942e-03
6.38828674e-04 4.12472436e-04 -1.18411705e-03
6.17923416e-04 4.93379080e-04 -1.21184527e-03
9.07398990e-04 5.10432019e-04 -1.01360106e-03
8.77950702e-04 5.86722107e-04 -1.04754131e-03
-1.04730486e-03 7.58564104e-04 -8.80572438e-04
-9.49021342e-04 6.63504474e-04 -9.93563391e-04
-8.88919681e-04 7.01032601e-04 -1.04146879e-03
-6.97073557e-04 6.47470845e-04 -1.17264512e-03
-4.15735228e-04 6.54479358e-04 -1.30337629e-03
-2.67266170e-04 6.37223198e-04 -1.34224162e-03
-2.56002397e-04 7.29144697e-04 -1.34426759e-03
-1.90099078e-04 6.90144889e-04 -1.35942506e-03
-1.27878186e-04 7.42336017e-04 -1.36139711e-03
1.53961003e-05 7.25566468e-04 -1.36516025e-03
9.41347894e-05 7.64924853e-04 -1.35805763e-03
1.74212998e-04 7.00378839e-04 -1.35209368e-03
2.39618366e-04 7.48392952e-04 -1.33912670e-03
3.26794690e-04 7.54901855e-04 -1.31556313e-03
4.09781851e-04 7.33027391e-04 -1.29445161e-03
5.07742392e-04 5.85203977e-04 -1.26792245e-03
5.34285895e-04 6.61286978e-04 -1.25925564e-03
6.68605696e-04 6.49057192e-04 -1.20485299e-03
6.89464483e-04 4.83048422e-04 -1.17041712e-03
8.42377220e-04 4.89509533e-04 -1.06559727e-03
8.91591817e-04 7.21715955e-04 -1.02803046e-03
-1.00194420e-03 7.19772460e-04 -9.41288050e-04
-9.42785157e-04 7.49545750e-04 -9.89623692e-04
-8.82487129e-04 7.85312883e-04 -1.03291642e-03
-5.41144004e-04 7.80083926e-04 -1.24883992e-03
-4.86687851e-04 7.04779624e-04 -1.27815144e-03
-3.30161522e-04 6.92110617e-04 -1.32345055e-03
-3.28232196e-04 7.83270631e-04 -1.31905845e-03
-1.97619334e-04 7.88883845e-04 -1.35070899e-03
-1.26576861e-04 8.29793638e-04 -1.34991594e-03
-5.00820967e-05 7.78820242e-04 -1.36167580e-03
2.59235656e-05 8.14758442e-04 -1.35554806e-03
1.70672169e-04 7.90390916e-04 -1.34637581e-03
1.92222204e-04 8.64413454e-04 -1.33269614e-03
2.68419305e-04 8.24404074e-04 -1.32180148e-03
3.81252597e-04 8.13811295e-04 -1.29360702e-03
4.88108030e-04 7.26720908e-04 -1.27201852e-03
5.27734805e-04 8.47853444e-04 -1.23415103e-03
6.06541207e-04 6.85348352e-04 -1.22939545e-03
6.65183026e-04 5.68615143e-04 -1.19779814e-03
7.60068965e-04 4.98086081e-04 -1.12902253e-03
8.51860106e-04 6.67490985e-04 -1.07392275e-03
-9.86056250e-04 8.04431494e-04 -9.37244173e-04
-8.62964915e-04 8.75143119e-04 -1.02262496e-03
-7.55498043e-04 7.87119070e-04 -1.12265614e-03
-6.16313401e-04 7.61682803e-04 -1.21248733e-03
-5.39549199e-04 8.57494416e-04 -1.23343988e-03
-4.02773815e-04 7.35860597e-04 -1.30331424e-03
-3.96620061e-04 8.26146459e-04 -1.29197091e-03
-2.60795514e-04 8.28526967e-04 -1.32918725e-03
-1.93398106e-04 8.78725237e-04 -1.33025597e-03
-5.61454520e-05 8.66424599e-04 -1.34593604e-03
2.09504450e-05 8.95923500e-04 -1.34020895e-03
1.04251783e-04 8.53491940e-04 -1.34382254e-03
1.72440019e-04 9.37280949e-04 -1.31704178e-03
2.58177092e-04 9.14823376e-04 -1.30513530e-03
3.29700777e-04 8.75781090e-04 -1.29496424e-03
4.69236898e-04 8.04728572e-04 -1.26630189e-03
5.60408693e-04 9.19208813e-04 -1.20286133e-03
5.57277460e-04 7.56987911e-04 -1.24101675e-03
7.33860913e-04 6.52365094e-04 -1.16869692e-03
8.17935811e-04 5.53899356e-04 -1.09956248e-03
8.69518322e-04 8.01158406e-04 -1.03289867e-03
-9.26457852e-04 8.42093661e-04 -9.82031400e-04
-8.42261365e-04 9.58778688e-04 -1.00941687e-03
[...]
POINT_DATA 20213
SCALARS pressure double 1
LOOKUP_TABLE default
0.00000000e+00
0.00000000e+00
0.00000000e+00
0.00000000e+00
8.60320007e+02
0.00000000e+00
0.00000000e+00
9.81857045e+02
7.36660381e+02
1.11406029e+03
1.34147849e+03
1.25041903e+03
8.10557238e+02
0.00000000e+00
9.54238125e+02
1.31480819e+03
1.35628868e+03
1.34655003e+03
8.48605180e+02
6.03564736e+02
0.00000000e+00
0.00000000e+00
0.00000000e+00
0.00000000e+00
0.00000000e+00
0.00000000e+00
0.00000000e+00
0.00000000e+00
0.00000000e+00
9.13793983e+02
8.71773075e+02
9.19656907e+02
0.00000000e+00
0.00000000e+00
0.00000000e+00
1.00130958e+03
1.23385264e+03
1.35766525e+03
1.07705666e+03
1.39880001e+03
0.00000000e+00
0.00000000e+00
6.99267438e+02
0.00000000e+00
0.00000000e+00
0.00000000e+00
8.17887403e+02
0.00000000e+00
8.48211118e+02
8.22735378e+02
9.39776842e+02
0.00000000e+00
1.15425175e+03
1.19558322e+03
0.00000000e+00
0.00000000e+00
0.00000000e+00
1.16512941e+03
1.44102936e+03
1.38550006e+03
1.24605139e+03
0.00000000e+00
0.00000000e+00
1.02895878e+03
9.20627908e+02
0.00000000e+00
7.79001801e+02
0.00000000e+00
0.00000000e+00
0.00000000e+00
9.70955493e+02
1.10374057e+03
1.14876471e+03
1.06005949e+03
9.02533796e+02
1.36671501e+03
1.13424390e+03
7.34961761e+02
0.00000000e+00
1.02845563e+03
9.74678298e+02
0.00000000e+00
0.00000000e+00
0.00000000e+00
1.31168185e+03
0.00000000e+00
0.00000000e+00
0.00000000e+00
0.00000000e+00
0.00000000e+00
0.00000000e+00
0.00000000e+00
9.89595999e+02
8.94690627e+02
0.00000000e+00
1.24179950e+03
0.00000000e+00
0.00000000e+00
8.89799188e+02
0.00000000e+00
9.49540073e+02
1.41229785e+03
0.00000000e+00
0.00000000e+00
0.00000000e+00
1.61615623e+03
1.03343616e+03
8.28882238e+02
7.29542648e+02
0.00000000e+00
0.00000000e+00
0.00000000e+00
0.00000000e+00
0.00000000e+00
0.00000000e+00
7.54812145e+02
1.12958909e+03
0.00000000e+00
0.00000000e+00
1.15932588e+03
0.00000000e+00
8.89313373e+02
1.29994072e+03
1.25300296e+03
8.40930264e+02
0.00000000e+00
1.53612996e+03
1.27022322e+03
0.00000000e+00
0.00000000e+00
0.00000000e+00
0.00000000e+00
0.00000000e+00
0.00000000e+00
0.00000000e+00
6.92589382e+02
7.78124823e+02
0.00000000e+00
0.00000000e+00
0.00000000e+00
8.57064563e+02
0.00000000e+00
0.00000000e+00
1.36170608e+03
1.01185510e+03
6.84741817e+02
0.00000000e+00
1.56710118e+03
1.18725543e+03
0.00000000e+00
8.25819318e+02
0.00000000e+00
0.00000000e+00
0.00000000e+00
0.00000000e+00
0.00000000e+00
7.64304186e+02
0.00000000e+00
0.00000000e+00
9.65604322e+02
1.07109535e+03
1.03031520e+03
0.00000000e+00
0.00000000e+00
0.00000000e+00
1.06545250e+03
7.41146625e+02
8.39561850e+02
1.55229557e+03
1.34260228e+03
0.00000000e+00
0.00000000e+00
0.00000000e+00
0.00000000e+00
0.00000000e+00
0.00000000e+00
0.00000000e+00
0.00000000e+00
8.07470437e+02
9.16444571e+02
0.00000000e+00
1.19478532e+03
0.00000000e+00
1.06163056e+03
1.20899036e+03
8.71019014e+02
0.00000000e+00
0.00000000e+00
8.11796640e+02
1.50799578e+03
1.16762618e+03
9.11852107e+02
7.81475552e+02
6.87349339e+02
0.00000000e+00
6.93992465e+02
0.00000000e+00
8.03078080e+02
7.57142002e+02
8.62951049e+02
0.00000000e+00
1.05456462e+03
1.17049653e+03
1.33371389e+03
1.19335261e+03
0.00000000e+00
1.05658190e+03
0.00000000e+00
0.00000000e+00
0.00000000e+00
1.33606517e+03
1.28033696e+03
0.00000000e+00
7.79865973e+02
0.00000000e+00
6.66283990e+02
0.00000000e+00
8.78930519e+02
8.95102867e+02
0.00000000e+00
1.05704833e+03
7.57193450e+02
9.58859524e+02
8.01797368e+02
1.10698702e+03
1.28598741e+03
1.21433616e+03
1.08820632e+03
0.00000000e+00
9.34741003e+02
0.00000000e+00
0.00000000e+00
1.27898808e+03
0.00000000e+00
0.00000000e+00
0.00000000e+00
0.00000000e+00
6.70867108e+02
7.09126440e+02
0.00000000e+00
1.00378873e+03
0.00000000e+00
0.00000000e+00
0.00000000e+00
0.00000000e+00
1.20535492e+03
1.14698597e+03
0.00000000e+00
1.22628490e+03
1.11324453e+03
0.00000000e+00
1.09060116e+03
1.36072075e+03
1.38127141e+03
0.00000000e+00
8.73937257e+02
7.56339321e+02
0.00000000e+00
0.00000000e+00
9.33540314e+02
1.06366501e+03
0.00000000e+00
8.84487921e+02
0.00000000e+00
0.00000000e+00
8.54951567e+02
1.15318979e+03
1.12022823e+03
1.30185189e+03
1.15383800e+03
1.01632753e+03
9.02595489e+02
0.00000000e+00
1.47547366e+03
1.28603495e+03
1.33014409e+03
1.05887306e+03
0.00000000e+00
1.09689841e+03
0.00000000e+00
1.19567075e+03
9.17546077e+02
0.00000000e+00
0.00000000e+00
0.00000000e+00
0.00000000e+00
0.00000000e+00
0.00000000e+00
9.09863408e+02
0.00000000e+00
0.00000000e+00
1.20362327e+03
0.00000000e+00
0.00000000e+00
1.36426347e+03
1.43242754e+03
1.24884177e+03
1.20133446e+03
0.00000000e+00
1.07288648e+03
1.21243124e+03
1.33929092e+03
1.19409701e+03
1.08498909e+03
0.00000000e+00
0.00000000e+00
0.00000000e+00
0.00000000e+00
0.00000000e+00
0.00000000e+00
1.01789445e+03
9.98499884e+02
1.14059516e+03
1.19538751e+03
1.38208402e+03
1.03204040e+03
1.27050302e+03
1.38955792e+03
1.30729532e+03
1.09733209e+03
1.20303419e+03
1.23921473e+03
1.27298439e+03
1.20509281e+03
0.00000000e+00
9.09110646e+02
0.00000000e+00
0.00000000e+00
0.00000000e+00
0.00000000e+00
0.00000000e+00
0.00000000e+00
1.01720898e+03
1.19820872e+03
1.26784178e+03
1.43437128e+03
1.07767421e+03
1.06043423e+03
1.30200787e+03
1.16086131e+03
0.00000000e+00
1.15542432e+03
1.00993923e+03
1.37460156e+03
1.18803948e+03
1.09429873e+03
9.38315239e+02
8.64752968e+02
0.00000000e+00
0.00000000e+00
0.00000000e+00
0.00000000e+00
0.00000000e+00
0.00000000e+00
9.13375045e+02
1.05973051e+03
1.21699199e+03
1.34251660e+03
0.00000000e+00
0.00000000e+00
0.00000000e+00
0.00000000e+00
8.15724507e+02
1.05911476e+03
0.00000000e+00
0.00000000e+00
1.10649527e+03
9.20356555e+02
7.07774351e+02
0.00000000e+00
0.00000000e+00
0.00000000e+00
0.00000000e+00
0.00000000e+00
0.00000000e+00
7.53398207e+02
0.00000000e+00
1.30040512e+03
1.09964027e+03
0.00000000e+00
8.75145902e+02
0.00000000e+00
0.00000000e+00
0.00000000e+00
9.13362387e+02
0.00000000e+00
0.00000000e+00
0.00000000e+00
7.78193177e+02
0.00000000e+00
0.00000000e+00
0.00000000e+00
0.00000000e+00
0.00000000e+00
0.00000000e+00
0.00000000e+00
0.00000000e+00
8.75150344e+02
1.07175169e+03
0.00000000e+00
7.72092737e+02
8.32992667e+02
0.00000000e+00
0.00000000e+00
0.00000000e+00
0.00000000e+00
0.00000000e+00
0.00000000e+00
0.00000000e+00
3.40643715e+02
0.00000000e+00
0.00000000e+00
0.00000000e+00
0.00000000e+00
0.00000000e+00
0.00000000e+00
4.62602162e+02
0.00000000e+00
0.00000000e+00
0.00000000e+00
0.00000000e+00
0.00000000e+00
7.68517854e+02
0.00000000e+00
8.53000990e+02
7.81939419e+02
0.00000000e+00
0.00000000e+00
0.00000000e+00
0.00000000e+00
0.00000000e+00
0.00000000e+00
4.23310546e+02
0.00000000e+00
0.00000000e+00
0.00000000e+00
0.00000000e+00
5.94307215e+02
7.26126726e+02
6.84838045e+02
0.00000000e+00
7.87128626e+02
0.00000000e+00
4.97249235e+02
0.00000000e+00
7.72341132e+02
8.49303456e+02
0.00000000e+00
0.00000000e+00
8.66054322e+02
1.05569982e+03
1.27678421e+03
1.16663252e+03
9.56178435e+02
1.06639652e+03
1.19087521e+03
1.31656468e+03
0.00000000e+00
1.18638560e+03
1.32726002e+03
0.00000000e+00
0.00000000e+00
7.99864864e+02
1.85033658e+03
1.43152370e+03
1.47843112e+03
1.10492137e+03
1.30540736e+03
1.09670082e+03
1.11517654e+03
7.74827480e+02
1.26115873e+03
1.88822568e+03
1.56382198e+03
2.24626735e+03
1.73825902e+03
1.61453303e+03
1.41171076e+03
1.38771049e+03
1.26579731e+03
1.51830524e+03
1.37111134e+03
0.00000000e+00
7.82480564e+02
1.48369260e+03
1.47767314e+03
1.39520206e+03
1.58786784e+03
1.85931308e+03
1.17596525e+03
8.98690757e+02
9.75369831e+02
0.00000000e+00
0.00000000e+00
1.29506802e+03
0.00000000e+00
9.85781686e+02
2.17731965e+03
1.25738070e+03
2.01119726e+03
1.22500419e+03
1.40924262e+03
1.37375321e+03
0.00000000e+00
0.00000000e+00
1.39735548e+03
1.43322361e+03
1.81195359e+03
1.82269353e+03
1.97917813e+03
9.65635334e+02
9.55856470e+02
1.72192137e+03
1.92219497e+03
2.00569070e+03
1.19813086e+03
1.19377286e+03
1.14755111e+03
1.00176146e+03
1.29820145e+03
1.52656089e+03
1.82337550e+03
1.37423785e+03
1.41346595e+03
0.00000000e+00
0.00000000e+00
1.39227408e+03
1.13256040e+03
1.15012518e+03
1.71841019e+03
1.44608389e+03
1.64458175e+03
9.60905533e+02
9.14716306e+02
1.32484573e+03
1.30591109e+03
2.20316228e+03
1.94418148e+03
2.25608686e+03
2.17394407e+03
1.70727913e+03
1.96498168e+03
1.29943072e+03
1.43170735e+03
1.36057579e+03
0.00000000e+00
8.38288800e+02
1.78360392e+03
1.42757178e+03
1.25426484e+03
1.62225797e+03
0.00000000e+00
1.65791331e+03
1.30087256e+03
1.03980728e+03
1.00769783e+03
1.56075178e+03
8.03374894e+02
1.33542099e+03
8.66849615e+02
2.29163052e+03
7.07180988e+02
2.30268264e+03
1.39120116e+03
1.21391857e+03
1.38805480e+03
0.00000000e+00
0.00000000e+00
1.48683319e+03
1.38472535e+03
1.31082383e+03
1.56511009e+03
1.09881497e+03
1.19814065e+03
1.29201595e+03
9.18707238e+02
1.81221367e+03
9.83390627e+02
1.29234251e+03
2.30184095e+03
1.07458961e+03
1.05639388e+03
1.74040773e+03
1.31116703e+03
1.23497339e+03
1.32320002e+03
1.27621568e+03
0.00000000e+00
1.39445649e+03
1.37222529e+03
9.55530294e+02
1.43414579e+03
1.30004128e+03
1.36837375e+03
1.07413101e+03
1.55372351e+03
1.20140055e+03
1.31409386e+03
1.16193569e+03
9.60925025e+02
2.09645677e+03
7.65754891e+02
1.01947823e+03
2.11331732e+03
1.24346206e+03
1.24311471e+03
7.70527441e+02
1.37827315e+03
0.00000000e+00
1.26347193e+03
1.47947125e+03
0.00000000e+00
1.83557636e+03
1.91134705e+03
1.26387794e+03
1.24911280e+03
1.50418378e+03
1.58992484e+03
2.10356245e+03
1.77339438e+03
1.88336326e+03
2.30264732e+03
7.86052008e+02
6.41287156e+02
1.17570858e+03
2.18831855e+03
1.83118478e+03
0.00000000e+00
1.42100569e+03
0.00000000e+00
1.48823338e+03
1.56559706e+03
8.69869959e+02
1.27604098e+03
1.03854472e+03
1.26995577e+03
1.28586730e+03
1.34206070e+03
1.48407294e+03
1.21720001e+03
1.09012909e+03
8.71339143e+02
2.02088232e+03
5.65292252e+02
6.67154138e+02
4.42602372e+02
1.16832709e+03
1.20587451e+03
9.79239285e+02
1.41984755e+03
1.08418197e+03
1.41948752e+03
1.36914369e+03
9.32874401e+02
1.43049108e+03
1.14471803e+03
1.26352954e+03
1.27064372e+03
1.40924079e+03
1.37641448e+03
1.38998966e+03
1.04422478e+03
1.51567246e+03
2.28036353e+03
1.81481691e+03
5.26874584e+02
7.93676200e+02
1.47095240e+03
2.21864828e+03
0.00000000e+00
1.32252411e+03
1.38045183e+03
0.00000000e+00
1.48246554e+03
8.80751406e+02
1.28284869e+03
1.36358989e+03
1.22826245e+03
1.32378752e+03
1.26436276e+03
1.84155474e+03
1.23339264e+03
1.80798072e+03
1.30961617e+03
1.40429981e+03
3.37236555e+02
7.55739838e+02
5.06037748e+02
8.92781089e+02
1.03593317e+03
0.00000000e+00
1.06754135e+03
1.30753047e+03
1.06140259e+03
1.24315873e+03
0.00000000e+00
1.41465641e+03
1.46540991e+03
1.30430603e+03
1.12783396e+03
1.54411354e+03
2.19728892e+03
1.18867131e+03
1.07356859e+03
1.98842800e+03
2.44347925e+03
2.18774672e+03
2.43423227e+02
3.96116493e+02
8.96201037e+02
1.94050096e+03
9.07937499e+02
1.54995667e+03
1.17107652e+03
1.24898728e+03
1.32647085e+03
1.02116985e+03
1.35386803e+03
1.19970572e+03
1.08166350e+03
1.13477031e+03
1.32471955e+03
1.53917869e+03
1.21566866e+03
1.11731278e+03
9.73229021e+02
1.06495424e+03
8.27554183e+02
2.85544797e+02
7.18307548e+02
9.94078624e+02
1.17932133e+03
9.59460459e+02
1.30409188e+03
1.29404088e+03
0.00000000e+00
1.03179621e+03
9.40545831e+02
1.12701560e+03
1.25093751e+03
1.06242940e+03
1.49135879e+03
1.79689259e+03
1.34886842e+03
1.03415099e+03
1.53337537e+03
8.41908232e+02
6.72728642e+02
6.16573749e+02
7.74482137e+02
6.57890927e+02
1.52279638e+03
5.97663123e+02
1.12433724e+03
1.10372009e+03
1.31435952e+03
0.00000000e+00
1.07174101e+03
8.42866075e+02
1.00880182e+03
9.73065809e+02
1.13755721e+03
1.06665466e+03
7.86281277e+02
1.18512414e+03
9.85756328e+02
8.51219060e+02
1.57634935e+03
5.92100223e+02
3.74447871e+02
3.00939949e+02
0.00000000e+00
1.18006470e+03
7.96011405e+02
1.12465712e+03
8.78499034e+02
1.29478654e+03
9.86266694e+02
8.72333350e+02
1.44920487e+03
9.62955811e+02
1.64394194e+03
8.33436659e+02
1.03266322e+03
8.23817027e+02
8.82028100e+02
8.15519522e+02
4.48557696e+02
6.07942881e+02
1.56672699e+03
8.44667731e+02
1.69014172e+03
7.20830296e+02
1.98203988e+03
1.01376185e+03
1.47840872e+03
8.40900178e+02
0.00000000e+00
1.00434432e+03
7.97970331e+02
9.70160766e+02
1.15809087e+03
9.83857374e+02
1.02989577e+03
7.51041826e+02
6.25948525e+02
1.34248371e+03
6.87630887e+02
9.36067519e+02
6.16979916e+02
1.83678008e+03
1.30895330e+03
6.75415164e+02
2.82425211e+02
9.38462644e+02
1.26904883e+03
5.67773432e+02
7.31800740e+02
1.21057255e+03
0.00000000e+00
7.48289824e+02
9.76112293e+02
9.95532436e+02
1.31431657e+03
1.09606147e+03
8.73673246e+02
0.00000000e+00
6.56929599e+02
9.35555132e+02
6.31950199e+02
0.00000000e+00
0.00000000e+00
0.00000000e+00
4.43810097e+02
8.83892118e+02
1.01672292e+03
6.33662420e+02
9.26038270e+02
1.28373629e+03
0.00000000e+00
0.00000000e+00
1.44573362e+03
7.54668229e+02
1.06685974e+03
9.12007164e+02
1.07021733e+03
8.01781398e+02
6.52254057e+02
8.83756855e+02
6.41817660e+02
1.47769766e+03
9.71536097e+02
1.96525765e+03
7.54029518e+02
9.59346938e+02
6.06474396e+02
1.02170961e+03
1.11634182e+03
1.20829608e+03
1.76175094e+03
0.00000000e+00
0.00000000e+00
0.00000000e+00
5.89324107e+02
7.32230687e+02
0.00000000e+00
8.92950561e+02
5.91455856e+02
0.00000000e+00
0.00000000e+00
0.00000000e+00
0.00000000e+00
4.73614948e+02
0.00000000e+00
0.00000000e+00
0.00000000e+00
0.00000000e+00
0.00000000e+00
0.00000000e+00
7.20861318e+02
0.00000000e+00
6.36658490e+02
0.00000000e+00
0.00000000e+00
0.00000000e+00
0.00000000e+00
1.14457403e+03
6.48696968e+02
7.21385648e+02
7.43660019e+02
0.00000000e+00
8.78220344e+02
7.78596430e+02
1.18379718e+03
1.30440418e+03
1.11777597e+03
1.07398261e+03
1.07957568e+03
1.12198843e+03
1.32927754e+03
0.00000000e+00
0.00000000e+00
0.00000000e+00
0.00000000e+00
1.68047146e+03
1.52569093e+03
1.51740743e+03
1.80637553e+03
1.27959031e+03
9.07658217e+02
7.84587296e+02
1.27850040e+03
0.00000000e+00
9.71211442e+02
1.25007190e+03
7.35387871e+02
0.00000000e+00
1.30019915e+03
1.44503540e+03
1.84762561e+03
1.29306231e+03
1.41919435e+03
1.19264706e+03
0.00000000e+00
0.00000000e+00
1.08011351e+03
1.54873197e+03
1.66472726e+03
1.96309431e+03
1.70570265e+03
1.76876609e+03
1.12457994e+03
1.71025695e+03
1.81170462e+03
2.12431911e+03
2.12539912e+03
2.32949395e+03
1.58287597e+03
1.55042826e+03
1.63993005e+03
2.32490416e+03
2.20605485e+03
1.90391650e+03
1.33732344e+03
0.00000000e+00
7.32269462e+02
1.21283370e+03
1.70212735e+03
1.56374674e+03
1.62408301e+03
1.36145769e+03
1.62624243e+03
1.57347715e+03
1.74023149e+03
9.39777439e+02
8.53672435e+02
1.15835081e+03
1.25758674e+03
2.39557228e+03
2.41538242e+03
2.17153770e+03
2.23129713e+03
1.53581466e+03
2.11564107e+03
2.24539272e+03
0.00000000e+00
0.00000000e+00
1.57548522e+03
1.64632765e+03
1.53184099e+03
1.69808393e+03
1.72894446e+03
1.74144747e+03
1.19245989e+03
1.78089517e+03
1.46252231e+03
1.90395940e+03
2.37715449e+03
1.97610793e+03
2.00057599e+03
2.19072554e+03
1.03433618e+03
2.10210302e+03
2.33579788e+03
1.82659433e+03
1.83842359e+03
0.00000000e+00
9.24915794e+02
1.58997175e+03
1.85714578e+03
1.51713757e+03
1.53723375e+03
1.33841547e+03
1.65190404e+03
1.72831233e+03
1.80659525e+03
1.73858369e+03
2.06433084e+03
1.28673355e+03
2.05323619e+03
2.24424459e+03
2.02205352e+03
1.98567338e+03
1.60296559e+03
2.36656942e+03
2.23014118e+03
2.05078920e+03
7.46377556e+02
1.01176864e+03
1.55427189e+03
2.00774363e+03
1.70559573e+03
1.38084020e+03
1.68304984e+03
9.29032175e+02
1.53084308e+03
1.32844266e+03
1.57993728e+03
1.83340571e+03
1.94576385e+03
1.91262087e+03
9.18134442e+02
1.56867089e+03
2.41418355e+03
1.56410182e+03
1.81140145e+03
2.23096986e+03
1.47246105e+03
9.76937615e+02
0.00000000e+00
1.43547726e+03
1.72028646e+03
1.67620788e+03
1.57004939e+03
1.44097177e+03
1.09806490e+03
2.10479814e+03
1.95320068e+03
1.55663635e+03
1.50807371e+03
1.83796004e+03
1.84411932e+03
1.75204450e+03
2.01624042e+03
1.05997926e+03
1.95051674e+03
2.20093863e+03
1.92397412e+03
1.14818217e+03
8.81861352e+02
0.00000000e+00
1.42322403e+03
1.80082720e+03
1.51537235e+03
1.57138671e+03
1.02418525e+03
1.90932201e+03
1.78832082e+03
1.28356820e+03
1.27666362e+03
1.20091148e+03
1.67376769e+03
2.47352988e+03
2.40307184e+03
2.24586133e+03
2.21627552e+03
2.27460714e+03
1.45700064e+03
2.30129819e+03
1.25870138e+03
9.81152263e+02
0.00000000e+00
1.35318819e+03
1.83972888e+03
1.42629220e+03
1.82674690e+03
1.93012370e+03
1.73195758e+03
1.92662726e+03
1.72462962e+03
1.35290381e+03
2.14526029e+03
2.09327174e+03
1.73414587e+03
2.53215056e+03
1.32427099e+03
2.37189534e+03
1.27274874e+03
1.39707636e+03
2.29150836e+03
1.41154002e+03
1.17016725e+03
0.00000000e+00
1.46284605e+03
1.42442046e+03
1.46210420e+03
1.53755781e+03
1.13616470e+03
1.36517253e+03
1.34349289e+03
2.07920192e+03
2.00496846e+03
1.77356811e+03
2.12236883e+03
2.20207969e+03
2.04977753e+03
1.55131605e+03
1.29486290e+03
1.72774213e+03
1.31693454e+03
2.32498685e+03
1.27575903e+03
1.10293311e+03
0.00000000e+00
1.34068259e+03
1.86624299e+03
1.42002772e+03
1.48456153e+03
1.77797150e+03
1.37062970e+03
1.42625680e+03
2.01987234e+03
1.99714925e+03
1.61807723e+03
1.13189729e+03
2.13120493e+03
2.52196289e+03
7.51883462e+02
1.39248418e+03
1.34878988e+03
1.31854468e+03
1.86014673e+03
1.12127938e+03
0.00000000e+00
0.00000000e+00
1.19815193e+03
2.01528588e+03
1.27462169e+03
1.96301924e+03
1.93054546e+03
1.91081861e+03
1.78621680e+03
2.28144601e+03
1.78560664e+03
1.55161048e+03
1.88320308e+03
2.39339981e+03
1.86047250e+03
2.46642674e+03
1.92384452e+03
1.98404746e+03
8.62217081e+02
2.19831736e+03
0.00000000e+00
0.00000000e+00
0.00000000e+00
1.40715526e+03
1.82274603e+03
1.16737218e+03
1.84925804e+03
1.22546947e+03
1.25639161e+03
1.95054200e+03
1.28199235e+03
1.46016797e+03
1.91916000e+03
1.93878710e+03
2.39811416e+03
1.39094052e+03
2.37025303e+02
7.67348772e+02
1.85602091e+03
1.44066330e+03
1.23201495e+03
1.26027315e+03
1.05810018e+03
0.00000000e+00
1.15193760e+03
1.43689971e+03
1.17055476e+03
1.54366047e+03
1.52166923e+03
1.31120542e+03
9.24800204e+02
1.78133664e+03
1.15650703e+03
1.53103465e+03
1.50241626e+03
2.45614624e+03
2.57677984e+02
1.71299511e+03
2.08873749e+03
2.35887238e+03
1.29780029e+03
1.69196035e+03
9.77916485e+02
0.00000000e+00
0.00000000e+00
9.66784930e+02
1.88134163e+03
1.37168600e+03
2.00918324e+03
1.94627126e+03
1.81294819e+03
1.21358463e+03
2.11220969e+03
2.00678487e+03
2.17845052e+03
2.38783692e+03
2.13693737e+03
9.76803110e+02
1.43226458e+03
2.42019448e+03
2.50670405e+03
1.35285291e+03
1.09916257e+03
8.78100027e+02
1.25096902e+03
1.06955865e+03
1.27612729e+03
1.86751093e+03
1.63710035e+03
2.08182966e+03
2.16091549e+03
2.08736214e+03
9.44944723e+02
1.33489720e+03
2.03106928e+03
2.37628310e+03
1.62003238e+03
2.59364523e+03
8.75377123e+02
2.03146879e+03
2.35271258e+03
2.21011585e+03
1.60053371e+03
2.41114877e+03
1.13410445e+03
0.00000000e+00
9.14786287e+02
6.35894585e+02
1.11818742e+03
1.10714170e+03
2.25665660e+03
1.47127951e+03
1.69423287e+03
1.58048219e+03
6.90848310e+02
5.77490966e+02
6.04109223e+02
5.68392853e+02
3.42172319e+02
9.91451065e+02
1.30145233e+03
1.74050692e+03
1.79452267e+03
1.59173049e+03
1.29362383e+03
1.05218763e+03
0.00000000e+00
7.37008042e+02
9.70559198e+02
1.89334670e+03
1.78084060e+03
1.33735922e+03
2.20039586e+03
9.37781338e+02
1.86324458e+03
2.34204440e+03
2.25496181e+03
2.42132280e+03
2.19482998e+03
2.53061127e+03
1.17660950e+03
1.38913088e+03
1.65330045e+03
1.98210569e+03
1.66325579e+03
2.34819527e+03
1.22236655e+03
0.00000000e+00
7.90962248e+02
1.01745598e+03
9.13742880e+02
1.01530713e+03
1.75956508e+03
1.35435518e+03
9.88358976e+02
0.00000000e+00
0.00000000e+00
0.00000000e+00
0.00000000e+00
7.79662382e+02
0.00000000e+00
8.94461145e+02
1.19816696e+03
1.44912266e+03
1.35764058e+03
1.25978511e+03
1.50244731e+03
9.48316438e+02
0.00000000e+00
0.00000000e+00
0.00000000e+00
0.00000000e+00
0.00000000e+00
8.43359848e+02
0.00000000e+00
8.22797221e+02
6.22013865e+02
6.94750203e+02
0.00000000e+00
0.00000000e+00
1.04968912e+03
1.10378253e+03
0.00000000e+00
0.00000000e+00
0.00000000e+00
8.26881312e+02
0.00000000e+00
6.76229415e+02
0.00000000e+00
0.00000000e+00
6.32978873e+02
1.25543463e+03
0.00000000e+00
1.77402536e+03
1.01122848e+03
1.08328354e+03