# vtk DataFile Version 3.0
MPS 3D Simulation Step 1300
ASCII
DATASET UNSTRUCTURED_GRID
POINTS 20213 double
-9.35699024e-04 3.20037001e-04 -8.80785857e-04
-8.45677949e-04 3.23902868e-04 -9.59953867e-04
-7.87818652e-04 3.10023886e-04 -1.00714974e-03
-7.10990265e-04 3.20671520e-04 -1.06780781e-03
-6.47730631e-04 3.17738554e-04 -1.11272871e-03
-5.75321490e-04 3.00052354e-04 -1.14917817e-03
-4.10325490e-04 2.51220806e-04 -1.20571464e-03
-3.21323066e-04 2.40304150e-04 -1.22761038e-03
-1.58297635e-04 2.83188118e-04 -1.25798134e-03
-8.22170125e-05 1.55401468e-04 -1.21807754e-03
1.24955562e-04 2.82071512e-04 -1.24289360e-03
3.45635105e-06 2.21256909e-04 -1.23688361e-03
8.53412585e-05 2.17151758e-04 -1.22503924e-03
1.82898593e-04 2.25508957e-04 -1.21142764e-03
2.76666702e-04 2.00886625e-04 -1.18069681e-03
4.97850967e-04 2.29593116e-04 -1.13908506e-03
5.56887421e-04 2.09115867e-04 -1.10439791e-03
6.81784303e-04 2.16239077e-04 -1.03854481e-03
7.45663833e-04 2.59615629e-04 -1.02152357e-03
8.16633824e-04 3.00247544e-04 -9.83486435e-04
9.24540770e-04 3.12877273e-04 -8.70502765e-04
-8.94879557e-04 3.73415979e-04 -9.21012344e-04
-8.25043067e-04 4.13987454e-04 -9.73709754e-04
-7.66605282e-04 3.83162486e-04 -1.02314628e-03
-6.31163663e-04 3.89616402e-04 -1.12623936e-03
-5.68962657e-04 4.46869284e-04 -1.15950214e-03
-5.59951978e-04 3.71955644e-04 -1.16802251e-03
-4.97228390e-04 3.02440603e-04 -1.18595373e-03
-3.51827411e-04 3.07420240e-04 -1.23592603e-03
-2.41397912e-04 2.73155676e-04 -1.24792567e-03
-7.85797565e-05 2.27774964e-04 -1.24526239e-03
4.27567906e-05 2.96514505e-04 -1.25465201e-03
2.44357102e-04 2.73155419e-04 -1.21981689e-03
3.44222340e-04 2.54301625e-04 -1.19594492e-03
3.94245947e-04 3.30256765e-04 -1.20601002e-03
4.21804987e-04 2.52062112e-04 -1.17459139e-03
4.80341060e-04 3.09351470e-04 -1.17328790e-03
5.54846929e-04 2.98150457e-04 -1.13305888e-03
6.21649322e-04 2.61646948e-04 -1.08913370e-03
6.91199872e-04 2.97079461e-04 -1.06684742e-03
7.67864265e-04 3.43940396e-04 -1.03058959e-03
8.71749132e-04 3.32841369e-04 -9.41085602e-04
-8.72715588e-04 4.61267591e-04 -9.29940718e-04
-8.01090631e-04 4.98269045e-04 -9.87450552e-04
-7.42492122e-04 4.63586755e-04 -1.03660829e-03
-7.00081265e-04 3.98898851e-04 -1.07582435e-03
-6.39735865e-04 4.66667769e-04 -1.11275287e-03
-4.89391784e-04 3.82911366e-04 -1.19677844e-03
-4.12310297e-04 4.14912593e-04 -1.21859353e-03
-4.25313573e-04 3.31456676e-04 -1.21713183e-03
-3.39056684e-04 3.84516951e-04 -1.24409016e-03
-2.42025844e-04 4.10467851e-04 -1.25628552e-03
-7.24627388e-05 3.92947887e-04 -1.27503994e-03
2.45990290e-04 3.63776305e-04 -1.24866705e-03
3.19822392e-04 3.92776974e-04 -1.23921616e-03
4.71130013e-04 3.78116637e-04 -1.18774400e-03
3.97450462e-04 4.06958671e-04 -1.21443083e-03
5.47178549e-04 3.86078494e-04 -1.15376612e-03
6.12031454e-04 4.24034918e-04 -1.12323344e-03
6.21878521e-04 3.45190108e-04 -1.11188843e-03
6.96411620e-04 3.73751325e-04 -1.07754285e-03
7.50540340e-04 4.24140481e-04 -1.04623471e-03
8.23631032e-04 3.92968115e-04 -9.89642910e-04
-9.33960205e-04 5.07767135e-04 -8.73570476e-04
-8.58479508e-04 5.39220436e-04 -9.37681142e-04
-6.92232327e-04 5.15780249e-04 -1.07252356e-03
-6.18217192e-04 5.48135077e-04 -1.11591251e-03
-5.48418536e-04 5.19333844e-04 -1.15674987e-03
-4.83832215e-04 4.61529551e-04 -1.18942215e-03
-4.00397460e-04 4.97302589e-04 -1.20690894e-03
-3.22254642e-04 4.56829990e-04 -1.23431483e-03
-2.34656040e-04 4.87114192e-04 -1.24151552e-03
-1.57208480e-04 4.25597206e-04 -1.26228481e-03
6.32737006e-06 4.60818172e-04 -1.26547584e-03
1.00649734e-04 3.67576029e-04 -1.26295403e-03
1.67116896e-04 4.18834271e-04 -1.26114004e-03
2.49224721e-04 4.47136887e-04 -1.25475227e-03
3.39120128e-04 4.70897442e-04 -1.23438798e-03
4.94114992e-04 4.50693153e-04 -1.17648612e-03
5.64169029e-04 4.81955179e-04 -1.14138256e-03
6.70050814e-04 4.56928404e-04 -1.09118601e-03
7.30897628e-04 4.95824532e-04 -1.05248684e-03
8.09158515e-04 4.67825187e-04 -9.96171098e-04
8.65979509e-04 4.85068064e-04 -9.37966386e-04
-9.00625778e-04 5.92075805e-04 -8.95291218e-04
-7.54559187e-04 5.57390715e-04 -1.02607801e-03
-6.86158224e-04 5.98506291e-04 -1.07272035e-03
-6.15771454e-04 6.31694377e-04 -1.10821142e-03
-5.45498061e-04 5.95868464e-04 -1.14685198e-03
-4.71053265e-04 5.44946993e-04 -1.18108971e-03
-3.22597332e-04 5.32807052e-04 -1.21675564e-03
-2.40798610e-04 5.66330569e-04 -1.22560838e-03
-1.52242792e-04 5.11800578e-04 -1.24641544e-03
-7.38561153e-05 4.62255607e-04 -1.26707144e-03
2.26861353e-05 5.38495071e-04 -1.25810603e-03
9.18146745e-05 4.53649923e-04 -1.26520532e-03
1.83060002e-04 5.01395419e-04 -1.26183544e-03
2.69662896e-04 5.96298206e-04 -1.23654128e-03
2.64413662e-04 5.23059123e-04 -1.24908192e-03
4.18089180e-04 4.89891442e-04 -1.20412381e-03
4.96631332e-04 5.30296896e-04 -1.16473681e-03
6.23188632e-04 5.31895567e-04 -1.10635802e-03
6.92248217e-04 5.59227263e-04 -1.06720120e-03
7.79467403e-04 5.44208448e-04 -1.01057754e-03
8.39709480e-04 5.55202072e-04 -9.57202191e-04
-9.24851384e-04 6.64203682e-04 -8.63849825e-04
-8.13219960e-04 5.96109524e-04 -9.74949350e-04
-7.45521106e-04 6.38776401e-04 -1.03189116e-03
-6.77964896e-04 6.81723152e-04 -1.06961178e-03
-5.39079874e-04 6.75599136e-04 -1.13679341e-03
-3.90715407e-04 6.72953352e-04 -1.18436996e-03
-3.92640939e-04 5.85715834e-04 -1.19297459e-03
-3.12782538e-04 6.18562558e-04 -1.20606674e-03
-1.45880314e-04 5.92796985e-04 -1.23854875e-03
-6.44527218e-05 5.37921528e-04 -1.25180646e-03
1.87873852e-05 6.14717536e-04 -1.24963616e-03
1.05878400e-04 5.31413014e-04 -1.26107363e-03
1.89729002e-04 5.74672494e-04 -1.25215439e-03
3.43954578e-04 6.26803463e-04 -1.20950742e-03
3.48311609e-04 5.47737373e-04 -1.22220336e-03
4.15205250e-04 6.56078236e-04 -1.17725723e-03
4.92300992e-04 6.18965338e-04 -1.15129992e-03
5.62239311e-04 5.76471005e-04 -1.12946177e-03
6.46797875e-04 6.24997740e-04 -1.08279496e-03
7.99488704e-04 6.27626519e-04 -9.83094945e-04
8.66413310e-04 6.21666137e-04 -9.20869629e-04
-8.85835204e-04 7.34704245e-04 -9.01418656e-04
-8.57322563e-04 6.60437696e-04 -9.32080168e-04
-7.34376982e-04 7.28076228e-04 -1.03051966e-03
-6.05800833e-04 7.15903516e-04 -1.10129985e-03
-5.32691049e-04 7.61383535e-04 -1.12579058e-03
-4.66407655e-04 7.10584813e-04 -1.15623471e-03
-3.09501684e-04 6.94973679e-04 -1.20097879e-03
-2.18334335e-04 6.41074073e-04 -1.22181051e-03
-1.37421088e-04 6.73579193e-04 -1.23170758e-03
-6.06766357e-05 6.25333720e-04 -1.24120546e-03
2.54549281e-05 6.89319565e-04 -1.24043463e-03
1.03888694e-04 6.15784670e-04 -1.24784620e-03
1.86444961e-04 6.51539676e-04 -1.23704184e-03
2.69009426e-04 6.74134920e-04 -1.21979591e-03
3.42942920e-04 7.17843140e-04 -1.19330985e-03
4.96040008e-04 6.98335215e-04 -1.14206763e-03
5.66913992e-04 7.38974732e-04 -1.10862605e-03
5.73514404e-04 6.57065946e-04 -1.11313287e-03
6.42790611e-04 7.05160603e-04 -1.07938670e-03
8.43465273e-04 6.96973330e-04 -9.34513148e-04
8.35653680e-04 7.74923649e-04 -9.36148467e-04
-9.06681769e-04 8.04027438e-04 -8.64454345e-04
-8.26762816e-04 7.41983464e-04 -9.63959450e-04
-7.95839939e-04 6.83914631e-04 -9.91719152e-04
-6.68154220e-04 7.68196650e-04 -1.06246022e-03
-4.63053346e-04 8.03844382e-04 -1.14848859e-03
-3.96357895e-04 7.55501638e-04 -1.17317295e-03
-3.17661011e-04 7.70977528e-04 -1.19209075e-03
-2.24933917e-04 7.17950499e-04 -1.21417198e-03
-1.47857374e-04 7.52744054e-04 -1.22733862e-03
-5.95554993e-05 7.09353913e-04 -1.23696728e-03
1.75028175e-05 7.67289461e-04 -1.23334814e-03
1.09013816e-04 6.99192413e-04 -1.23519986e-03
1.87641456e-04 7.35879989e-04 -1.22445833e-03
2.66467579e-04 7.58825051e-04 -1.21008710e-03
3.42793915e-04 8.01316616e-04 -1.18853022e-03
4.21228735e-04 7.41374298e-04 -1.16585043e-03
4.96650776e-04 7.84136183e-04 -1.13725069e-03
6.37908504e-04 7.88354609e-04 -1.07190383e-03
7.35493067e-04 6.18714382e-04 -1.03394875e-03
7.79101429e-04 7.09968608e-04 -9.89314740e-04
8.88240920e-04 8.16831736e-04 -8.82684607e-04
-8.65477234e-04 8.69322540e-04 -9.00085956e-04
-8.42344543e-04 8.09699159e-04 -9.36050586e-04
-7.74117387e-04 7.93583600e-04 -9.96317605e-04
-5.94740680e-04 8.06533904e-04 -1.09246142e-03
-5.26417267e-04 8.54179745e-04 -1.11662196e-03
-3.93895844e-04 8.42694658e-04 -1.16883368e-03
-3.14851176e-04 8.55416000e-04 -1.18931100e-03
-2.37459868e-04 7.96047784e-04 -1.20828405e-03
-1.54832607e-04 8.28084004e-04 -1.22186526e-03
-6.61019139e-05 7.88963820e-04 -1.23136593e-03
1.80668759e-05 8.41729191e-04 -1.22470300e-03
1.02930701e-04 7.80448986e-04 -1.22535830e-03
1.81225933e-04 8.19281516e-04 -1.21528706e-03
2.58426445e-04 8.38518915e-04 -1.20524899e-03
3.31385891e-04 8.80705578e-04 -1.18571547e-03
4.19118005e-04 8.24640115e-04 -1.16403073e-03
4.88450020e-04 8.63323737e-04 -1.13720932e-03
5.69171703e-04 8.24634111e-04 -1.10392255e-03
7.15131225e-04 6.90555381e-04 -1.04253675e-03
7.71501417e-04 7.91378098e-04 -9.89558000e-04
8.23080674e-04 8.57176116e-04 -9.37288613e-04
-8.94815186e-04 9.16575401e-04 -8.44562743e-04
-8.23872177e-04 9.32703978e-04 -9.28536422e-04
-7.13317357e-04 8.29127693e-04 -1.03072289e-03
-6.46537941e-04 8.62171968e-04 -1.06088187e-03
-5.82787049e-04 9.07630578e-04 -1.08293543e-03
-4.56482016e-04 8.93649693e-04 -1.14238863e-03
-3.72522481e-04 9.22912713e-04 -1.16926089e-03
-2.34577486e-04 8.78051524e-04 -1.20641605e-03
-1.54713835e-04 9.07276452e-04 -1.21495618e-03
-7.42509809e-05 8.62495638e-04 -1.22597024e-03
1.44999831e-06 9.14455040e-04 -1.21453825e-03
9.81550141e-05 8.62148677e-04 -1.21575395e-03
1.68211632e-04 9.03876692e-04 -1.20376599e-03
2.46270808e-04 9.11350169e-04 -1.19669475e-03
3.15857274e-04 9.61416682e-04 -1.17636829e-03
4.05325955e-04 9.02240028e-04 -1.16447957e-03
4.70804678e-04 9.45063281e-04 -1.13393574e-03
5.50251757e-04 9.10286530e-04 -1.10332834e-03
6.25403810e-04 8.79935867e-04 -1.06962655e-03
7.58573044e-04 8.67945204e-04 -9.91347775e-04
8.75882497e-04 9.80170741e-04 -8.66883580e-04
-8.57930922e-04 9.86079431e-04 -8.75708791e-04
-8.02710767e-04 1.01847450e-03 -9.31679416e-04
[...]
POINT_DATA 20213
SCALARS pressure double 1
LOOKUP_TABLE default
2.13325058e+03
2.08604802e+03
1.72232508e+03
0.00000000e+00
0.00000000e+00
0.00000000e+00
9.93863506e+02
1.21683512e+03
1.16075257e+03
0.00000000e+00
0.00000000e+00
0.00000000e+00
0.00000000e+00
0.00000000e+00
0.00000000e+00
0.00000000e+00
0.00000000e+00
0.00000000e+00
0.00000000e+00
0.00000000e+00
8.54440961e+02
2.13848032e+03
1.86485048e+03
1.65797194e+03
0.00000000e+00
0.00000000e+00
0.00000000e+00
0.00000000e+00
1.18029567e+03
1.33783591e+03
0.00000000e+00
0.00000000e+00
0.00000000e+00
0.00000000e+00
3.44884694e+02
0.00000000e+00
0.00000000e+00
0.00000000e+00
0.00000000e+00
0.00000000e+00
0.00000000e+00
0.00000000e+00
1.98013360e+03
1.81978943e+03
1.56337469e+03
1.26590408e+03
0.00000000e+00
9.87729883e+02
0.00000000e+00
0.00000000e+00
0.00000000e+00
0.00000000e+00
0.00000000e+00
0.00000000e+00
0.00000000e+00
0.00000000e+00
2.62385710e+02
0.00000000e+00
0.00000000e+00
0.00000000e+00
0.00000000e+00
0.00000000e+00
0.00000000e+00
1.83763902e+03
1.82449035e+03
0.00000000e+00
1.23237680e+03
1.24751783e+03
1.16760967e+03
1.37508832e+03
1.39741744e+03
1.36290342e+03
1.18114051e+03
0.00000000e+00
0.00000000e+00
0.00000000e+00
0.00000000e+00
0.00000000e+00
0.00000000e+00
5.41802694e+02
0.00000000e+00
8.75388586e+02
0.00000000e+00
8.36881366e+02
1.70357409e+03
1.56705833e+03
1.47203219e+03
1.51163511e+03
1.33237065e+03
1.28412261e+03
1.44352165e+03
1.25978248e+03
1.11364659e+03
0.00000000e+00
0.00000000e+00
0.00000000e+00
0.00000000e+00
0.00000000e+00
0.00000000e+00
0.00000000e+00
0.00000000e+00
8.13196176e+02
9.16368183e+02
9.51997569e+02
9.50564718e+02
0.00000000e+00
1.72941053e+03
1.53106147e+03
1.51063851e+03
1.32832637e+03
1.15943187e+03
1.30159215e+03
1.26929300e+03
0.00000000e+00
0.00000000e+00
0.00000000e+00
0.00000000e+00
0.00000000e+00
0.00000000e+00
0.00000000e+00
0.00000000e+00
0.00000000e+00
0.00000000e+00
9.41170708e+02
1.03976214e+03
8.41701548e+02
1.55038309e+03
1.63598888e+03
0.00000000e+00
1.52511190e+03
1.24032110e+03
1.19019119e+03
0.00000000e+00
1.21958285e+03
1.11748965e+03
7.31479032e+02
0.00000000e+00
0.00000000e+00
0.00000000e+00
0.00000000e+00
0.00000000e+00
0.00000000e+00
1.11153094e+03
8.50187623e+02
0.00000000e+00
8.73090314e+02
0.00000000e+00
1.57426573e+03
0.00000000e+00
1.63464827e+03
1.57227712e+03
0.00000000e+00
0.00000000e+00
8.85842898e+02
1.12703061e+03
1.24130714e+03
0.00000000e+00
0.00000000e+00
7.18982399e+02
7.95583997e+02
7.07910282e+02
0.00000000e+00
7.39429017e+02
1.01898897e+03
1.20260964e+03
9.68483526e+02
1.02031371e+03
0.00000000e+00
1.60119423e+03
1.55110154e+03
0.00000000e+00
1.43443991e+03
1.02432509e+03
0.00000000e+00
0.00000000e+00
1.06793558e+03
1.31860577e+03
1.13654260e+03
1.18901036e+03
1.00073772e+03
8.07705604e+02
0.00000000e+00
9.55063534e+02
9.66883901e+02
1.12664363e+03
1.18814963e+03
0.00000000e+00
9.25340378e+02
0.00000000e+00
1.62358180e+03
1.55071685e+03
1.53703942e+03
1.52053600e+03
1.19555966e+03
0.00000000e+00
0.00000000e+00
0.00000000e+00
1.24932173e+03
0.00000000e+00
1.27546244e+03
1.11622912e+03
0.00000000e+00
0.00000000e+00
1.00456452e+03
1.24276963e+03
1.15918756e+03
1.06445850e+03
1.02264994e+03
0.00000000e+00
0.00000000e+00
0.00000000e+00
1.38147218e+03
1.29345489e+03
9.56108479e+02
0.00000000e+00
0.00000000e+00
8.58151823e+02
0.00000000e+00
1.30366950e+03
1.34577602e+03
1.36342976e+03
1.17110232e+03
1.06845243e+03
9.74939269e+02
1.09815671e+03
1.24699216e+03
1.02349632e+03
0.00000000e+00
6.89133407e+02
0.00000000e+00
0.00000000e+00
0.00000000e+00
0.00000000e+00
1.01466833e+03
0.00000000e+00
0.00000000e+00
6.43997772e+02
0.00000000e+00
0.00000000e+00
1.12657605e+03
1.09957231e+03
1.19544989e+03
0.00000000e+00
9.48557380e+02
9.50773515e+02
0.00000000e+00
0.00000000e+00
0.00000000e+00
7.30725644e+02
0.00000000e+00
0.00000000e+00
0.00000000e+00
1.10955052e+03
1.22679155e+03
1.08374829e+03
9.50333202e+02
0.00000000e+00
0.00000000e+00
0.00000000e+00
1.01072169e+03
1.03929964e+03
9.40055212e+02
0.00000000e+00
0.00000000e+00
0.00000000e+00
8.97309819e+02
0.00000000e+00
9.26094179e+02
0.00000000e+00
9.01538641e+02
0.00000000e+00
0.00000000e+00
0.00000000e+00
0.00000000e+00
1.18518860e+03
1.08274846e+03
0.00000000e+00
9.37130079e+02
1.01582303e+03
9.45903609e+02
1.05796059e+03
0.00000000e+00
0.00000000e+00
0.00000000e+00
1.02438404e+03
8.42926028e+02
0.00000000e+00
0.00000000e+00
1.00815900e+03
1.12451084e+03
0.00000000e+00
0.00000000e+00
0.00000000e+00
0.00000000e+00
0.00000000e+00
9.26938343e+02
0.00000000e+00
1.00386906e+03
1.02279916e+03
1.16723227e+03
1.08580518e+03
1.03453530e+03
0.00000000e+00
1.03926121e+03
9.22833840e+02
8.93816578e+02
1.03291110e+03
8.32348699e+02
0.00000000e+00
1.34016561e+03
1.14269546e+03
0.00000000e+00
0.00000000e+00
0.00000000e+00
0.00000000e+00
0.00000000e+00
7.35571163e+02
9.64072519e+02
0.00000000e+00
1.05068716e+03
1.16094215e+03
9.80818172e+02
1.01469055e+03
1.06746678e+03
9.39427866e+02
1.00317281e+03
0.00000000e+00
7.88401584e+02
0.00000000e+00
1.05502472e+03
1.05046337e+03
1.34774074e+03
9.60678105e+02
6.70705768e+02
0.00000000e+00
0.00000000e+00
0.00000000e+00
0.00000000e+00
0.00000000e+00
0.00000000e+00
0.00000000e+00
8.23588138e+02
5.95480911e+02
8.93352628e+02
0.00000000e+00
0.00000000e+00
8.08444216e+02
6.17595156e+02
0.00000000e+00
0.00000000e+00
8.15394843e+02
1.20068859e+03
1.26012485e+03
1.09540513e+03
1.05525014e+03
0.00000000e+00
8.41357881e+02
0.00000000e+00
5.65994368e+02
4.98597817e+02
0.00000000e+00
0.00000000e+00
0.00000000e+00
0.00000000e+00
0.00000000e+00
0.00000000e+00
0.00000000e+00
0.00000000e+00
5.80225038e+02
0.00000000e+00
6.18372194e+02
9.83685832e+02
0.00000000e+00
1.11632659e+03
1.23384689e+03
1.14023096e+03
0.00000000e+00
1.01334829e+03
0.00000000e+00
0.00000000e+00
0.00000000e+00
0.00000000e+00
0.00000000e+00
0.00000000e+00
0.00000000e+00
0.00000000e+00
0.00000000e+00
0.00000000e+00
5.17945675e+02
0.00000000e+00
0.00000000e+00
0.00000000e+00
0.00000000e+00
8.18108582e+02
0.00000000e+00
1.20030024e+03
0.00000000e+00
1.20461944e+03
1.06832350e+03
0.00000000e+00
0.00000000e+00
0.00000000e+00
4.59370595e+02
0.00000000e+00
0.00000000e+00
0.00000000e+00
0.00000000e+00
0.00000000e+00
0.00000000e+00
4.22714519e+02
5.27283784e+02
5.51788493e+02
0.00000000e+00
7.85050120e+02
0.00000000e+00
1.01382130e+03
1.02920774e+03
1.23269691e+03
1.24320957e+03
1.34949351e+03
7.05602660e+02
0.00000000e+00
0.00000000e+00
0.00000000e+00
7.26184705e+02
0.00000000e+00
0.00000000e+00
0.00000000e+00
0.00000000e+00
0.00000000e+00
0.00000000e+00
5.21876006e+02
6.56700930e+02
0.00000000e+00
6.97457756e+02
8.05722712e+02
8.30492600e+02
0.00000000e+00
1.36243877e+03
1.36320175e+03
1.29429014e+03
1.97424899e+03
2.02511758e+03
1.76928062e+03
1.53622751e+03
1.33046840e+03
1.08852686e+03
0.00000000e+00
0.00000000e+00
1.12260997e+03
1.05463649e+03
7.78785375e+02
0.00000000e+00
5.21790620e+02
0.00000000e+00
0.00000000e+00
0.00000000e+00
0.00000000e+00
7.01958072e+02
0.00000000e+00
0.00000000e+00
8.84029025e+02
1.91436660e+03
1.58302151e+03
2.01857503e+03
1.88066760e+03
1.46694173e+03
1.44748831e+03
1.31820475e+03
1.22940057e+03
1.15478463e+03
7.60253370e+02
1.15028086e+03
9.14131879e+02
1.00831033e+03
9.55744222e+02
6.22600110e+02
6.49354135e+02
7.45673844e+02
7.35566648e+02
1.02956195e+03
1.15163827e+03
8.76405219e+02
1.95672038e+03
2.04326662e+03
1.79415495e+03
1.59063371e+03
1.60632973e+03
1.43756469e+03
1.19170627e+03
0.00000000e+00
0.00000000e+00
1.43352874e+03
7.66551163e+02
0.00000000e+00
0.00000000e+00
0.00000000e+00
9.10944502e+02
6.84497924e+02
1.19948052e+03
9.50533127e+02
9.95606938e+02
9.75149151e+02
0.00000000e+00
1.71357890e+03
1.94462322e+03
1.70709114e+03
1.58445228e+03
1.33147494e+03
1.47631278e+03
1.34839352e+03
1.42536500e+03
1.38768668e+03
1.33503131e+03
1.36216508e+03
1.00625313e+03
6.91933248e+02
3.89623894e+02
3.87725417e+02
5.18717866e+02
1.02983785e+03
1.22449791e+03
1.00400138e+03
1.11732000e+03
9.07616645e+02
1.37441993e+03
1.99854478e+03
1.74307461e+03
1.39727840e+03
1.60567433e+03
1.45176962e+03
1.50828347e+03
1.36783668e+03
1.05148470e+03
1.03940973e+03
5.13767847e+02
7.52200870e+02
9.66033242e+02
8.00057500e+02
1.26505210e+03
8.67290124e+02
1.05801875e+03
8.86233023e+02
1.21205031e+03
9.71331553e+02
0.00000000e+00
1.61227994e+03
1.77749025e+03
1.85646309e+03
1.74192543e+03
1.58683782e+03
0.00000000e+00
1.51514868e+03
1.52796185e+03
1.44777567e+03
1.11220665e+03
7.47151340e+02
5.17515537e+02
4.25553338e+02
4.43593110e+02
9.81546230e+02
0.00000000e+00
7.96614971e+02
1.11856320e+03
1.09130241e+03
1.01456668e+03
8.15668453e+02
0.00000000e+00
1.75355560e+03
1.74224954e+03
1.69156271e+03
1.79521918e+03
1.61749319e+03
1.35384917e+03
1.35889440e+03
1.51254779e+03
1.26560400e+03
8.82079276e+02
8.45294464e+02
8.89613237e+02
6.26475961e+02
5.97875663e+02
1.02197308e+03
1.28143031e+03
1.17348246e+03
1.15064323e+03
1.00198582e+03
0.00000000e+00
1.47240427e+03
1.70630257e+03
1.60813132e+03
1.71213287e+03
1.62339306e+03
1.50927495e+03
1.23107973e+03
1.36154163e+03
1.50048433e+03
1.31847029e+03
1.10412974e+03
1.10868988e+03
1.09112042e+03
9.11980890e+02
8.63614608e+02
1.13946288e+03
1.24810386e+03
1.19383721e+03
1.09980947e+03
8.69676492e+02
0.00000000e+00
1.58236891e+03
1.79175118e+03
1.51091585e+03
1.82461067e+03
1.48783225e+03
1.25850279e+03
1.29559791e+03
1.45945209e+03
1.78109343e+03
1.53436767e+03
1.44088669e+03
1.24834141e+03
1.53685046e+03
1.24733854e+03
8.66230491e+02
1.11770107e+03
1.31181208e+03
1.35885299e+03
1.00794872e+03
1.17264512e+03
0.00000000e+00
1.58857423e+03
1.72617252e+03
1.48118300e+03
1.59771568e+03
1.12077243e+03
1.08213791e+03
1.13641319e+03
1.34495014e+03
1.48291832e+03
1.42599237e+03
1.34285974e+03
1.22784008e+03
1.27879822e+03
1.07571721e+03
1.01922182e+03
1.12862414e+03
1.22799194e+03
1.06663885e+03
0.00000000e+00
8.81756150e+02
0.00000000e+00
1.52247881e+03
1.77405807e+03
1.30878648e+03
1.66143241e+03
1.35289878e+03
1.02735719e+03
9.49420224e+02
1.34027036e+03
1.40593459e+03
1.53276939e+03
1.49629504e+03
1.38034014e+03
1.60942158e+03
1.32288448e+03
1.21496351e+03
1.24621324e+03
1.06738470e+03
1.52078012e+03
0.00000000e+00
1.27472573e+03
6.31869489e+02
1.18092554e+03
1.61689026e+03
0.00000000e+00
1.44749249e+03
1.20450963e+03
1.00342551e+03
1.09354824e+03
1.40644728e+03
1.31993287e+03
1.20642292e+03
1.47638121e+03
1.17445006e+03
1.37394292e+03
1.14315459e+03
1.30358907e+03
1.23542352e+03
1.17149249e+03
7.50759249e+02
0.00000000e+00
7.84607155e+02
0.00000000e+00
1.17557977e+03
1.66650972e+03
1.31951794e+03
1.54632142e+03
1.52905272e+03
1.07016901e+03
1.11908087e+03
1.68655322e+03
1.58494469e+03
1.35356626e+03
1.33802838e+03
1.41451318e+03
1.59290588e+03
1.50885709e+03
1.14001049e+03
1.07169563e+03
1.10866487e+03
1.06327885e+03
0.00000000e+00
1.15639115e+03
0.00000000e+00
1.08219788e+03
1.44965755e+03
1.17345681e+03
1.31328987e+03
1.21166301e+03
1.17509134e+03
1.14109607e+03
1.27852801e+03
1.32520363e+03
1.25385098e+03
1.12198422e+03
1.10499356e+03
1.28661925e+03
1.17247801e+03
1.17380092e+03
9.15804236e+02
9.02604129e+02
6.49997892e+02
0.00000000e+00
5.66415493e+02
0.00000000e+00
1.03607078e+03
1.28055026e+03
1.17502227e+03
1.25453377e+03
1.47556397e+03
1.17338601e+03
1.19958728e+03
1.23219172e+03
1.17277132e+03
1.14169481e+03
1.17354921e+03
1.11072622e+03
1.09976793e+03
1.15547327e+03
1.14828413e+03
1.03767524e+03
1.16493883e+03
7.57929070e+02
6.88447628e+02
5.71161176e+02
0.00000000e+00
8.61876003e+02
1.12747101e+03
1.02455308e+03
1.09638423e+03
1.17885840e+03
1.08342853e+03
8.91247439e+02
1.04031904e+03
1.09442666e+03
1.14015293e+03
1.05035785e+03
1.09307098e+03
1.12056933e+03
1.19449457e+03
1.15666362e+03
1.21958297e+03
1.29485708e+03
9.96375048e+02
9.73495548e+02
7.43646788e+02
0.00000000e+00
9.35810094e+02
9.70989855e+02
1.26760319e+03
9.08219027e+02
1.30014805e+03
1.00803155e+03
1.32050787e+03
9.21503609e+02
1.07786095e+03
9.28533100e+02
8.64811193e+02
1.00412655e+03
1.19805758e+03
9.71126678e+02
1.37472941e+03
1.32026685e+03
1.44436580e+03
1.21383074e+03
1.27621243e+03
1.06188997e+03
0.00000000e+00
0.00000000e+00
8.93651074e+02
8.06486393e+02
1.19113893e+03
8.24230800e+02
7.74580742e+02
7.75795220e+02
7.39857102e+02
1.07181786e+03
8.05333749e+02
1.15560746e+03
8.54279198e+02
1.18768747e+03
9.04871934e+02
1.08251345e+03
1.28131736e+03
1.30154135e+03
1.38754604e+03
1.22076331e+03
1.24683405e+03
8.28053608e+02
7.97475997e+02
9.80772587e+02
7.73128907e+02
7.93694062e+02
1.17408754e+03
7.01576896e+02
6.30871938e+02
0.00000000e+00
0.00000000e+00
5.70025945e+02
0.00000000e+00
0.00000000e+00
5.99978545e+02
0.00000000e+00
1.15284261e+03
1.23899927e+03
1.41154980e+03
1.32379905e+03
1.39284483e+03
1.27004768e+03
1.09286123e+03
0.00000000e+00
1.16835488e+03
9.31932903e+02
7.47366035e+02
7.62462836e+02
6.34123577e+02
5.45943009e+02
5.43016120e+02
9.31897843e+02
6.48174799e+02
1.00933585e+03
7.97433948e+02
1.00963277e+03
8.17730856e+02
9.33499072e+02
1.07335902e+03
1.15299968e+03
1.33021423e+03
1.41561557e+03
1.44800012e+03
1.33292000e+03
8.80250996e+02
0.00000000e+00
0.00000000e+00
9.05802939e+02
9.46113439e+02
0.00000000e+00
0.00000000e+00
0.00000000e+00
0.00000000e+00
0.00000000e+00
0.00000000e+00
0.00000000e+00
0.00000000e+00
7.57013625e+02
7.48318567e+02
0.00000000e+00
0.00000000e+00
0.00000000e+00
1.18482185e+03
1.32395398e+03
1.01827231e+03
1.62014391e+03
1.98306048e+03
1.78807874e+03
1.56451625e+03
1.34919218e+03
0.00000000e+00
9.38515726e+02
0.00000000e+00
8.12426830e+02
8.68179688e+02
9.57978071e+02
6.94139132e+02
5.75796737e+02
5.72801402e+02
4.94472679e+02
0.00000000e+00
0.00000000e+00
7.55025576e+02
8.46508089e+02
8.62455351e+02
0.00000000e+00
1.67317815e+03
1.92346893e+03
1.83557731e+03
1.84352785e+03
1.51582742e+03
1.54502673e+03
1.15869630e+03
0.00000000e+00
8.03066211e+02
9.80755176e+02
8.43352344e+02
6.07645884e+02
5.76837189e+02
0.00000000e+00
6.66338118e+02
6.92090850e+02
1.08194120e+03
1.08290953e+03
8.55896258e+02
8.76018962e+02
0.00000000e+00
0.00000000e+00
1.89920258e+03
1.73859909e+03
1.77833344e+03
1.59039314e+03
1.52775096e+03
1.40114910e+03
1.35196375e+03
1.26595662e+03
1.42172097e+03
1.21577073e+03
1.10780818e+03
1.18819925e+03
9.89507587e+02
8.77357673e+02
9.56038569e+02
1.26688525e+03
1.08911257e+03
1.31492706e+03
1.07695906e+03
0.00000000e+00
0.00000000e+00
1.66717243e+03
1.69597696e+03
1.73180794e+03
1.77357891e+03
1.47044921e+03
1.43066911e+03
1.64200690e+03
1.47561526e+03
1.35649952e+03
9.71368579e+02
6.51453384e+02
5.06991032e+02
1.03748565e+03
9.88337813e+02
9.97902037e+02
1.37764616e+03
1.13617343e+03
1.20428045e+03
1.06502064e+03
6.83934350e+02
0.00000000e+00
1.62602372e+03
1.74407657e+03
1.80277274e+03
1.82398261e+03
1.70384115e+03
1.62894683e+03
1.52915814e+03
1.40021133e+03
1.23019627e+03
1.40519927e+03
1.27646610e+03
1.39504467e+03
1.38592488e+03
1.27816244e+03
1.52661306e+03
1.26710067e+03
1.51236324e+03
1.57798219e+03
1.20210580e+03
0.00000000e+00
1.19618514e+03
1.86234022e+03
1.78135508e+03
1.74204254e+03
2.08345879e+03
1.75825038e+03
1.61989963e+03
1.56856881e+03
1.68030238e+03
1.49703168e+03
1.71226698e+03
1.72324299e+03
1.64801028e+03
1.32718435e+03
1.47990395e+03
1.34860252e+03
1.37656515e+03
1.10314723e+03
1.27260591e+03
9.54675048e+02
0.00000000e+00
1.19650759e+03
1.61991774e+03
1.82743059e+03
1.78806137e+03
2.13401577e+03
1.71179181e+03
1.47627116e+03
1.50340513e+03
1.77107137e+03
1.40043862e+03
1.29868283e+03
1.36202026e+03
1.65168418e+03
6.28093075e+02
6.95007384e+02
1.22059676e+03
1.63445545e+03
1.33063262e+03
1.22624351e+03
8.80163626e+02
0.00000000e+00
1.40519289e+03
1.66667108e+03
1.77674811e+03
1.89136360e+03
1.75743106e+03
1.68856649e+03
1.50719690e+03
1.50934326e+03
1.51376172e+03
1.77742285e+03
1.24053869e+03
1.70013030e+03
1.48153828e+03
1.10699601e+03
8.24146096e+02
1.22654099e+03
1.37501657e+03
1.52620946e+03
1.34698874e+03
7.13542494e+02
0.00000000e+00
1.40650523e+03
1.70972778e+03
2.05280864e+03
1.70351869e+03
1.76858102e+03
2.08936487e+03
1.82756239e+03
1.62211135e+03
2.10643605e+03
1.88933578e+03
1.65403850e+03
1.78131145e+03
1.63020856e+03
1.29126666e+03
1.49132025e+03
1.98416568e+03
1.59725159e+03
1.11128722e+03
1.45565213e+03
8.22985977e+02
8.92391896e+02
1.43164191e+03
1.60656933e+03
1.87492593e+03
1.69909083e+03
1.78770136e+03
1.91051008e+03
1.46785128e+03
1.82075043e+03
1.73188833e+03
1.49778110e+03
1.64277152e+03
1.39481833e+03
1.70539673e+03
1.58088975e+03
1.34767770e+03
1.51885795e+03
1.22190935e+03
9.54914971e+02
1.63969156e+03
1.06368911e+03
1.19982552e+03
1.51667702e+03
1.58434323e+03
1.81880328e+03
1.63811140e+03
1.80884199e+03
2.27918777e+03
1.44964158e+03
1.34014106e+03
1.94784350e+03
1.60591503e+03
1.84528366e+03
1.65045757e+03
1.71384247e+03
1.35376087e+03
1.32632385e+03
2.00369127e+03
2.03412247e+03
8.11202222e+02
1.60079969e+03
9.72125614e+02
0.00000000e+00
1.43531797e+03
0.00000000e+00
1.82740775e+03
1.49442600e+03
1.67579857e+03
1.81158062e+03
1.31644324e+03
1.94747078e+03
1.83708579e+03
1.45012958e+03
1.69268146e+03
1.36238226e+03
1.65462732e+03
1.79347685e+03
1.38760559e+03
1.74091944e+03
1.21950260e+03
6.19417853e+02
1.53296788e+03
0.00000000e+00
0.00000000e+00
0.00000000e+00
1.37748962e+03
1.70793428e+03
1.35109673e+03
1.77070428e+03
1.97482679e+03
1.68758819e+03
1.60072974e+03
1.81764058e+03
1.61527705e+03
1.72004222e+03
1.61216251e+03
1.96408078e+03
1.33483599e+03
1.56388275e+03
1.61006296e+03
1.57079555e+03
5.75399581e+02
1.50631745e+03
5.28214387e+02
0.00000000e+00
1.09005737e+03
1.27791954e+03
1.60290221e+03
1.50040116e+03
1.72078631e+03
1.39863724e+03
1.20611265e+03
1.37671870e+03
1.38529987e+03
1.52924830e+03
1.38999339e+03
1.57740841e+03
1.60367125e+03
1.35584609e+03
1.10755846e+03
1.26465698e+03
1.52226398e+03
1.06576839e+03
9.96536687e+02
0.00000000e+00
0.00000000e+00
1.05642041e+03
1.24593446e+03
1.42965627e+03
1.35320662e+03
1.69853294e+03
1.37900861e+03
1.03259057e+03
1.15128784e+03
1.45964147e+03
1.22452483e+03
1.31928969e+03
1.28041696e+03
1.60852250e+03
1.24742321e+03
1.34600766e+03
1.32577789e+03
1.97123338e+03
1.30985144e+03
9.98759720e+02
5.84003820e+02
6.28170516e+02
1.05346319e+03
1.11460291e+03
1.51049735e+03
1.32623315e+03
1.86713431e+03
1.49135226e+03
1.33936714e+03
1.30044102e+03
1.55994619e+03
1.55280593e+03
1.98228838e+03
1.59791454e+03
1.56843827e+03
1.35427547e+03
1.38516520e+03
1.60285791e+03
1.90655912e+03
1.28626992e+03
1.11951319e+03
8.16720502e+02
0.00000000e+00
0.00000000e+00
1.27304969e+03
1.52171825e+03
1.55723478e+03
1.59918522e+03
1.71806756e+03
1.85966605e+03
1.16982605e+03
1.55472161e+03
1.00922450e+03
2.01372482e+03
1.12848583e+03
1.56401309e+03
1.24768440e+03
1.64816534e+03
1.90231338e+03
1.74682131e+03
1.49632670e+03
1.50890312e+03
1.13648888e+03
0.00000000e+00
0.00000000e+00
1.02477165e+03
1.13642000e+03
1.19845580e+03
1.52393585e+03
1.19969168e+03
1.02283574e+03
1.06889450e+03
5.96730253e+02
6.39327764e+02
7.49536672e+02
8.55785273e+02
9.66379466e+02
1.24764456e+03
1.31416105e+03
1.41021868e+03
1.56884615e+03
1.43794927e+03
1.33052092e+03
9.60722246e+02
0.00000000e+00
9.42204708e+02
1.06046678e+03
1.51003902e+03
1.05617401e+03
1.51663248e+03
1.30978136e+03
9.29900922e+02
9.99368303e+02
1.53881776e+03
1.49403191e+03
1.57694460e+03
1.54906019e+03
1.54680153e+03
1.17469824e+03
1.26588428e+03
1.38120109e+03
1.56185108e+03
1.46832083e+03
1.60007157e+03
1.21769571e+03
8.49127718e+02
0.00000000e+00
1.08792926e+03
1.06441961e+03
9.38388931e+02
1.25119103e+03
9.68241096e+02
7.50589476e+02
0.00000000e+00
0.00000000e+00
0.00000000e+00
0.00000000e+00
0.00000000e+00
3.49587082e+02
0.00000000e+00
9.93910884e+02
1.13178880e+03
1.40243370e+03
1.28853874e+03
1.44975916e+03
1.29388366e+03
0.00000000e+00
1.03610360e+03
1.08686843e+03
1.02287884e+03
0.00000000e+00
1.03388709e+03
0.00000000e+00
8.63264738e+02
6.14486197e+02
6.78893526e+02
4.49114766e+02
0.00000000e+00
0.00000000e+00
0.00000000e+00
0.00000000e+00
0.00000000e+00
7.54032511e+02
0.00000000e+00
0.00000000e+00
1.20660117e+03
0.00000000e+00
1.10375536e+03
1.78226051e+03
1.82362326e+03
1.41036177e+03
1.46552955e+03
1.34370231e+03
1.17879237e+03