# vtk DataFile Version 3.0
MPS 3D Simulation Step 2300
ASCII
DATASET UNSTRUCTURED_GRID
POINTS 20213 double
-1.14471620e-03 2.64671098e-04 -1.09050699e-03
-1.00485846e-03 2.27221716e-04 -1.20065870e-03
-9.44420424e-04 2.47797079e-04 -1.25918266e-03
-9.14121148e-04 3.23110002e-04 -1.30336072e-03
-7.99046394e-04 2.46241649e-04 -1.36218101e-03
-6.68957996e-04 3.25396834e-04 -1.44528756e-03
-4.71828749e-04 2.74714395e-04 -1.50861126e-03
-3.99368585e-04 2.44185986e-04 -1.52174673e-03
-4.10899055e-04 1.61717954e-04 -1.48770188e-03
-1.36693421e-04 3.82556562e-04 -1.49583638e-03
1.20967456e-04 1.24822073e-04 -1.44453759e-03
-1.25685487e-04 1.10831202e-04 -1.49492663e-03
-7.13817412e-05 1.70336306e-04 -1.53788003e-03
1.74504639e-04 1.65030036e-04 -1.50243525e-03
3.18136013e-04 1.79377442e-04 -1.49490962e-03
6.72632586e-04 1.85576400e-04 -1.38656879e-03
6.09033735e-04 1.34022665e-04 -1.38472938e-03
7.48009834e-04 1.95485277e-04 -1.35534453e-03
8.84098999e-04 1.24339102e-04 -1.17576221e-03
9.62745412e-04 1.14139699e-04 -1.09744598e-03
1.13017258e-03 1.78211149e-04 -1.04657011e-03
-1.08437514e-03 2.58939876e-04 -1.14577475e-03
-1.01088471e-03 3.00236281e-04 -1.23009565e-03
-9.77210423e-04 3.56702208e-04 -1.26792252e-03
-7.41308351e-04 2.95464123e-04 -1.40328476e-03
-7.35282059e-04 4.48403908e-04 -1.41204788e-03
-7.22331473e-04 3.74051062e-04 -1.42489868e-03
-5.93106604e-04 3.65830415e-04 -1.47794789e-03
-3.77159521e-04 3.20228489e-04 -1.54285002e-03
-2.54588605e-04 1.86120350e-04 -1.53425352e-03
-1.63464562e-04 1.87036380e-04 -1.54226950e-03
-3.69172339e-06 2.00085109e-04 -1.54996457e-03
1.79451917e-04 2.33530681e-04 -1.53963402e-03
4.69633236e-04 2.24960104e-04 -1.48346209e-03
4.52041181e-04 2.93253991e-04 -1.51069240e-03
5.37758693e-04 2.27713019e-04 -1.46019873e-03
6.13438517e-04 2.30711268e-04 -1.43145973e-03
6.87504548e-04 2.63617827e-04 -1.41385568e-03
6.86377859e-04 1.17388906e-04 -1.32863295e-03
7.57241291e-04 2.74741578e-04 -1.38645380e-03
8.89597402e-04 2.46456970e-04 -1.28839319e-03
1.10406817e-03 2.20581766e-04 -1.10049274e-03
-1.07051497e-03 3.23887447e-04 -1.18291811e-03
-1.03723559e-03 3.89269764e-04 -1.21810993e-03
-9.87691641e-04 4.41410938e-04 -1.25378825e-03
-8.39630477e-04 3.08767010e-04 -1.35160411e-03
-7.90682988e-04 3.67574810e-04 -1.38690373e-03
-6.48656496e-04 4.14167129e-04 -1.45456529e-03
-4.52787726e-04 3.52917361e-04 -1.52324344e-03
-5.35985069e-04 3.19635395e-04 -1.49459169e-03
-3.35634817e-04 3.88551810e-04 -1.55960360e-03
-2.28668654e-04 2.54979485e-04 -1.56139553e-03
-3.69661431e-05 3.72591709e-04 -1.59262095e-03
2.28091647e-04 3.00045435e-04 -1.55787952e-03
3.77018299e-04 3.17263311e-04 -1.53979996e-03
5.37984259e-04 3.14881591e-04 -1.48443921e-03
3.78043008e-04 2.39268058e-04 -1.51492109e-03
6.18747234e-04 3.90952142e-04 -1.46584226e-03
7.69125299e-04 3.50185132e-04 -1.39614306e-03
6.91207535e-04 3.44663770e-04 -1.43159834e-03
8.17539493e-04 2.44216682e-04 -1.34237840e-03
9.46490102e-04 2.21970150e-04 -1.23119123e-03
9.71800285e-04 1.69568180e-04 -1.16686212e-03
-1.16254972e-03 4.20310666e-04 -1.09723003e-03
-1.10024166e-03 4.00368816e-04 -1.16026916e-03
-9.23646269e-04 4.13240678e-04 -1.30308432e-03
-8.06603156e-04 4.54830694e-04 -1.37104587e-03
-5.80753017e-04 4.62522598e-04 -1.47452705e-03
-5.19542843e-04 4.08384045e-04 -1.50360944e-03
-4.07707990e-04 4.22311427e-04 -1.53817531e-03
-2.73281772e-04 3.34754103e-04 -1.56880835e-03
-1.96901508e-04 3.46678438e-04 -1.58245370e-03
-1.56526747e-04 2.71835391e-04 -1.57551916e-03
3.63369960e-05 4.15671023e-04 -1.58679458e-03
8.94959304e-05 1.73343240e-04 -1.51218075e-03
1.39699974e-04 3.23062889e-04 -1.57154786e-03
2.02143933e-04 3.77497765e-04 -1.57361728e-03
3.85900123e-04 3.92123032e-04 -1.54458994e-03
6.15078986e-04 3.11637333e-04 -1.45662003e-03
5.96686689e-04 4.77924339e-04 -1.46554180e-03
9.01070781e-04 3.32471685e-04 -1.31597910e-03
9.55380431e-04 3.01676429e-04 -1.26350909e-03
1.01173803e-03 2.47675078e-04 -1.19310180e-03
1.07588299e-03 2.86626913e-04 -1.15201652e-03
-1.17187230e-03 5.01417373e-04 -1.07377017e-03
-9.29512631e-04 4.99198405e-04 -1.28015622e-03
-8.61368980e-04 3.91212574e-04 -1.34559368e-03
-6.67765030e-04 4.93754165e-04 -1.43248083e-03
-5.21139037e-04 5.22002673e-04 -1.48819117e-03
-4.69051373e-04 4.69265890e-04 -1.51617267e-03
-2.58032086e-04 4.27602787e-04 -1.57289145e-03
-1.77736250e-04 4.28510628e-04 -1.58701637e-03
-1.11912621e-04 3.32710920e-04 -1.59020347e-03
-3.36133673e-05 4.67613711e-04 -1.58535282e-03
6.13134584e-05 4.91504348e-04 -1.57480898e-03
4.12985224e-05 3.34773451e-04 -1.58247457e-03
1.55215899e-04 4.60299448e-04 -1.57447228e-03
3.02164568e-04 5.22438419e-04 -1.54589274e-03
2.59537797e-04 4.28861856e-04 -1.56722965e-03
4.67543191e-04 3.70070928e-04 -1.51814577e-03
5.44204833e-04 3.98964146e-04 -1.49275406e-03
8.38371293e-04 3.16762122e-04 -1.35378003e-03
9.57411400e-04 3.83547697e-04 -1.28102532e-03
1.01946265e-03 3.20702664e-04 -1.21154729e-03
1.01024454e-03 4.09428931e-04 -1.23338991e-03
-1.17435339e-03 5.80656577e-04 -1.03815441e-03
-1.04622038e-03 4.72819281e-04 -1.19643809e-03
-8.66042426e-04 5.69454401e-04 -1.29859171e-03
-8.71204752e-04 4.83292637e-04 -1.32658073e-03
-5.95590205e-04 5.43186908e-04 -1.45234407e-03
-3.32251471e-04 5.60482259e-04 -1.53738427e-03
-3.30189227e-04 4.73295063e-04 -1.55474433e-03
-2.60613612e-04 5.17028385e-04 -1.56284949e-03
-9.98895865e-05 4.17375254e-04 -1.59296405e-03
-1.07830567e-04 5.07702577e-04 -1.57798415e-03
-1.61972002e-05 5.39523023e-04 -1.56895948e-03
1.14080448e-04 3.95979299e-04 -1.58247696e-03
2.20546291e-04 4.99430362e-04 -1.56137258e-03
3.34542163e-04 4.44514331e-04 -1.55354808e-03
2.96715609e-04 3.53269330e-04 -1.55968763e-03
4.63329613e-04 5.39821444e-04 -1.50066911e-03
5.07326758e-04 4.68078903e-04 -1.50330247e-03
6.75242732e-04 4.38376395e-04 -1.44407123e-03
8.93178947e-04 4.15794508e-04 -1.32722082e-03
9.42080029e-04 4.70670545e-04 -1.27974716e-03
1.06941736e-03 3.74425903e-04 -1.18041678e-03
-1.11457966e-03 5.56236562e-04 -1.10660381e-03
-1.10889913e-03 4.79499101e-04 -1.13902731e-03
-9.28783562e-04 5.86329873e-04 -1.24617671e-03
-7.38810146e-04 5.27541957e-04 -1.39025657e-03
-6.59636164e-04 5.79724174e-04 -1.41111695e-03
-4.48650591e-04 5.66933660e-04 -1.50246486e-03
-2.51194468e-04 5.92312512e-04 -1.54526938e-03
-1.84098936e-04 5.05475767e-04 -1.57645695e-03
-1.57496986e-04 5.81474673e-04 -1.55567835e-03
-7.21937238e-05 5.94002102e-04 -1.55547965e-03
6.62044190e-05 5.78378981e-04 -1.55205737e-03
1.35022576e-04 5.39925755e-04 -1.56018316e-03
2.41117542e-04 5.78092946e-04 -1.53893218e-03
3.33266371e-04 5.97778818e-04 -1.51261652e-03
3.81136036e-04 5.23447102e-04 -1.52747290e-03
6.57743790e-04 5.27375510e-04 -1.43323927e-03
7.30000797e-04 5.10164598e-04 -1.40283647e-03
8.28082869e-04 4.03424960e-04 -1.36478463e-03
7.45568991e-04 4.24548999e-04 -1.40977154e-03
1.06130689e-03 4.64713297e-04 -1.18508641e-03
1.04470807e-03 5.50489015e-04 -1.17997454e-03
-1.15963015e-03 6.61961519e-04 -1.01316224e-03
-1.05070541e-03 5.50286766e-04 -1.16327335e-03
-9.87313685e-04 5.31589627e-04 -1.22545061e-03
-8.04559623e-04 5.44782792e-04 -1.34669071e-03
-5.15632852e-04 6.03313292e-04 -1.46466928e-03
-3.82798387e-04 6.18319611e-04 -1.50630349e-03
-3.07149213e-04 6.44082251e-04 -1.51332699e-03
-2.00601326e-04 6.52495118e-04 -1.52873363e-03
-1.17906334e-04 6.62468100e-04 -1.52974127e-03
5.71401017e-06 6.28987568e-04 -1.53764832e-03
9.89986076e-05 6.52496338e-04 -1.52100484e-03
1.71232438e-04 6.04936834e-04 -1.53716400e-03
2.64776048e-04 6.54205059e-04 -1.50447252e-03
4.15883741e-04 6.07179811e-04 -1.48829901e-03
5.01977629e-04 6.16159044e-04 -1.46050458e-03
5.44277053e-04 5.41850684e-04 -1.47563312e-03
5.98896902e-04 5.85692611e-04 -1.44172401e-03
7.68427501e-04 5.72307759e-04 -1.36442573e-03
8.70488728e-04 4.96121507e-04 -1.32679957e-03
1.00277008e-03 4.95810532e-04 -1.23132790e-03
1.07645658e-03 6.34363727e-04 -1.12896686e-03
-1.10986954e-03 6.26694130e-04 -1.07836453e-03
-1.04808214e-03 6.37959352e-04 -1.12206000e-03
-9.91394426e-04 6.09353401e-04 -1.18439983e-03
-6.54423714e-04 6.59982235e-04 -1.38257703e-03
-5.84894850e-04 6.25748138e-04 -1.42835630e-03
-4.40683185e-04 6.56619152e-04 -1.47249758e-03
-3.59353051e-04 7.03196765e-04 -1.47136544e-03
-2.56502427e-04 7.06506532e-04 -1.49817112e-03
-1.70787453e-04 7.29540066e-04 -1.49729882e-03
-4.87920164e-05 6.96278235e-04 -1.51614836e-03
3.09492249e-05 7.09738484e-04 -1.50620924e-03
1.89148301e-04 6.77711070e-04 -1.50754258e-03
2.08326481e-04 7.48188527e-04 -1.47487180e-03
3.47016143e-04 6.80011346e-04 -1.47978208e-03
4.27683388e-04 6.85490514e-04 -1.45822544e-03
5.73451286e-04 6.57936970e-04 -1.42700269e-03
5.83836140e-04 7.33859061e-04 -1.39250186e-03
6.80836999e-04 5.98367851e-04 -1.40277168e-03
7.99399860e-04 4.84142258e-04 -1.37000013e-03
9.22554716e-04 5.50875904e-04 -1.27221556e-03
1.01214953e-03 6.41080783e-04 -1.17575472e-03
-1.08787004e-03 7.04082736e-04 -1.05223047e-03
-9.79996824e-04 6.85203605e-04 -1.15175410e-03
-8.56976389e-04 6.51381060e-04 -1.26862005e-03
-7.29823119e-04 6.06662174e-04 -1.36686920e-03
-6.48926122e-04 7.42171821e-04 -1.35069328e-03
-5.13239466e-04 6.86750508e-04 -1.43347207e-03
-4.40918546e-04 7.29304210e-04 -1.43676088e-03
-3.00129223e-04 7.65525480e-04 -1.45959468e-03
-2.20861650e-04 7.86838041e-04 -1.46455816e-03
-1.00773563e-04 7.59510444e-04 -1.48833799e-03
-2.04450960e-05 7.78238549e-04 -1.48124460e-03
1.19536278e-04 7.28848238e-04 -1.49125672e-03
1.51452887e-04 8.01788201e-04 -1.45325797e-03
2.86625846e-04 7.37429852e-04 -1.46675810e-03
3.69325756e-04 7.55184264e-04 -1.44412872e-03
4.99831294e-04 7.01003795e-04 -1.43225652e-03
6.37823063e-04 7.72783100e-04 -1.34968995e-03
6.47762792e-04 6.79670235e-04 -1.38847486e-03
8.00983098e-04 6.51701988e-04 -1.31769336e-03
9.76742714e-04 5.83092203e-04 -1.22404553e-03
1.03740691e-03 7.12255029e-04 -1.12012777e-03
-1.02431841e-03 7.26053785e-04 -1.09023864e-03
-9.56702145e-04 7.73240666e-04 -1.11650109e-03
[...]
POINT_DATA 20213
SCALARS pressure double 1
LOOKUP_TABLE default
0.00000000e+00
0.00000000e+00
0.00000000e+00
8.18801922e+02
9.44773923e+02
1.20649934e+03
1.24291793e+03
0.00000000e+00
0.00000000e+00
1.28315190e+03
5.04526345e+02
6.81341295e+02
0.00000000e+00
5.29048131e+02
0.00000000e+00
0.00000000e+00
0.00000000e+00
6.64325639e+02
6.36271216e+02
4.92952517e+02
0.00000000e+00
0.00000000e+00
0.00000000e+00
0.00000000e+00
1.08723756e+03
8.65686882e+02
0.00000000e+00
1.36456810e+03
1.38706674e+03
1.12750322e+03
9.21785994e+02
0.00000000e+00
0.00000000e+00
0.00000000e+00
0.00000000e+00
0.00000000e+00
0.00000000e+00
6.10937580e+02
0.00000000e+00
8.73577989e+02
9.14107187e+02
0.00000000e+00
7.54136609e+02
7.71892485e+02
0.00000000e+00
7.96488029e+02
9.22831776e+02
0.00000000e+00
1.45392838e+03
1.34911732e+03
1.49967024e+03
0.00000000e+00
1.25820220e+03
0.00000000e+00
0.00000000e+00
0.00000000e+00
0.00000000e+00
0.00000000e+00
8.61457154e+02
7.19481719e+02
8.00041882e+02
0.00000000e+00
0.00000000e+00
7.67662658e+02
0.00000000e+00
6.77892125e+02
0.00000000e+00
1.25189254e+03
1.34398011e+03
1.38891940e+03
1.35610120e+03
1.39993943e+03
1.05602853e+03
1.14479536e+03
0.00000000e+00
8.86603496e+02
7.29459330e+02
0.00000000e+00
0.00000000e+00
0.00000000e+00
0.00000000e+00
0.00000000e+00
0.00000000e+00
0.00000000e+00
8.11160684e+02
6.39498660e+02
0.00000000e+00
9.15431779e+02
1.33957698e+03
0.00000000e+00
1.32326629e+03
1.22114087e+03
0.00000000e+00
1.02565079e+03
9.37864917e+02
9.36785804e+02
7.66566978e+02
0.00000000e+00
0.00000000e+00
0.00000000e+00
0.00000000e+00
0.00000000e+00
0.00000000e+00
7.53752899e+02
0.00000000e+00
7.37048114e+02
5.99026078e+02
5.86948489e+02
0.00000000e+00
1.09908912e+03
1.31353848e+03
1.35791368e+03
0.00000000e+00
1.19509235e+03
1.04071510e+03
0.00000000e+00
1.04114243e+03
0.00000000e+00
0.00000000e+00
0.00000000e+00
0.00000000e+00
0.00000000e+00
0.00000000e+00
0.00000000e+00
0.00000000e+00
6.43222018e+02
6.34275819e+02
0.00000000e+00
0.00000000e+00
0.00000000e+00
0.00000000e+00
0.00000000e+00
0.00000000e+00
0.00000000e+00
0.00000000e+00
0.00000000e+00
0.00000000e+00
0.00000000e+00
0.00000000e+00
0.00000000e+00
0.00000000e+00
5.30089615e+02
7.15160795e+02
0.00000000e+00
7.42670110e+02
0.00000000e+00
0.00000000e+00
7.40482576e+02
0.00000000e+00
0.00000000e+00
0.00000000e+00
1.23213484e+03
1.26270016e+03
1.03061756e+03
0.00000000e+00
0.00000000e+00
0.00000000e+00
6.58005653e+02
0.00000000e+00
0.00000000e+00
0.00000000e+00
0.00000000e+00
0.00000000e+00
0.00000000e+00
7.66156122e+02
0.00000000e+00
0.00000000e+00
9.97934770e+02
0.00000000e+00
0.00000000e+00
0.00000000e+00
5.43478676e+02
0.00000000e+00
1.26799744e+03
1.09692962e+03
0.00000000e+00
0.00000000e+00
0.00000000e+00
0.00000000e+00
6.13857403e+02
5.62206901e+02
0.00000000e+00
0.00000000e+00
0.00000000e+00
3.01920514e+02
6.77722526e+02
0.00000000e+00
0.00000000e+00
0.00000000e+00
6.76821608e+02
0.00000000e+00
0.00000000e+00
0.00000000e+00
0.00000000e+00
0.00000000e+00
1.18549751e+03
9.03321686e+02
0.00000000e+00
6.18843424e+02
0.00000000e+00
5.93823282e+02
0.00000000e+00
0.00000000e+00
0.00000000e+00
0.00000000e+00
0.00000000e+00
0.00000000e+00
0.00000000e+00
0.00000000e+00
1.06723486e+03
0.00000000e+00
0.00000000e+00
0.00000000e+00
0.00000000e+00
0.00000000e+00
9.00868422e+02
1.15513678e+03
0.00000000e+00
0.00000000e+00
0.00000000e+00
7.49270622e+02
0.00000000e+00
0.00000000e+00
0.00000000e+00
0.00000000e+00
0.00000000e+00
0.00000000e+00
0.00000000e+00
0.00000000e+00
0.00000000e+00
8.48537385e+02
0.00000000e+00
0.00000000e+00
0.00000000e+00
0.00000000e+00
0.00000000e+00
0.00000000e+00
1.03901620e+03
1.00486657e+03
9.59327272e+02
0.00000000e+00
6.92707063e+02
5.25313757e+02
0.00000000e+00
0.00000000e+00
0.00000000e+00
0.00000000e+00
4.33663019e+02
5.35845556e+02
0.00000000e+00
8.93097008e+02
1.06209913e+03
0.00000000e+00
0.00000000e+00
0.00000000e+00
0.00000000e+00
0.00000000e+00
0.00000000e+00
0.00000000e+00
1.02092869e+03
9.92895401e+02
0.00000000e+00
6.76987865e+02
0.00000000e+00
0.00000000e+00
0.00000000e+00
0.00000000e+00
0.00000000e+00
0.00000000e+00
0.00000000e+00
0.00000000e+00
8.64802404e+02
9.22641918e+02
0.00000000e+00
0.00000000e+00
2.59847296e+02
0.00000000e+00
0.00000000e+00
0.00000000e+00
9.46180382e+02
1.00264668e+03
0.00000000e+00
0.00000000e+00
0.00000000e+00
0.00000000e+00
0.00000000e+00
0.00000000e+00
0.00000000e+00
0.00000000e+00
0.00000000e+00
0.00000000e+00
8.43496332e+02
0.00000000e+00
1.00850665e+03
0.00000000e+00
0.00000000e+00
0.00000000e+00
0.00000000e+00
0.00000000e+00
0.00000000e+00
1.04241826e+03
8.93852555e+02
8.31742468e+02
0.00000000e+00
0.00000000e+00
4.24386942e+02
0.00000000e+00
0.00000000e+00
0.00000000e+00
0.00000000e+00
0.00000000e+00
0.00000000e+00
7.17954725e+02
8.97640918e+02
0.00000000e+00
0.00000000e+00
0.00000000e+00
0.00000000e+00
0.00000000e+00
0.00000000e+00
8.07474511e+02
1.02433177e+03
1.01596329e+03
0.00000000e+00
6.96826062e+02
0.00000000e+00
0.00000000e+00
4.12116848e+02
0.00000000e+00
0.00000000e+00
0.00000000e+00
0.00000000e+00
5.74213342e+02
7.77040567e+02
8.52299898e+02
0.00000000e+00
0.00000000e+00
0.00000000e+00
0.00000000e+00
0.00000000e+00
0.00000000e+00
8.71240185e+02
9.25251443e+02
0.00000000e+00
0.00000000e+00
0.00000000e+00
0.00000000e+00
0.00000000e+00
6.01016488e+02
6.48561440e+02
0.00000000e+00
3.82349032e+02
4.20133143e+02
0.00000000e+00
5.91171327e+02
0.00000000e+00
1.04300037e+03
0.00000000e+00
5.27420108e+02
0.00000000e+00
3.97217292e+02
0.00000000e+00
5.98809066e+02
7.02366815e+02
7.95785657e+02
9.79499739e+02
0.00000000e+00
6.86985112e+02
6.09554252e+02
6.87267818e+02
4.08474451e+02
0.00000000e+00
0.00000000e+00
0.00000000e+00
0.00000000e+00
0.00000000e+00
0.00000000e+00
9.86736119e+02
6.11718835e+02
6.65130038e+02
5.88228385e+02
0.00000000e+00
0.00000000e+00
0.00000000e+00
7.66840037e+02
0.00000000e+00
0.00000000e+00
7.84843239e+02
0.00000000e+00
0.00000000e+00
0.00000000e+00
0.00000000e+00
0.00000000e+00
0.00000000e+00
0.00000000e+00
0.00000000e+00
7.37855518e+02
9.76826907e+02
1.31538249e+03
0.00000000e+00
0.00000000e+00
6.24600721e+02
6.00920794e+02
0.00000000e+00
0.00000000e+00
0.00000000e+00
0.00000000e+00
8.81901900e+02
7.02021186e+02
0.00000000e+00
0.00000000e+00
5.63357728e+02
4.56137435e+02
0.00000000e+00
0.00000000e+00
0.00000000e+00
0.00000000e+00
0.00000000e+00
1.00810263e+03
1.23963981e+03
0.00000000e+00
0.00000000e+00
5.88681470e+02
0.00000000e+00
0.00000000e+00
0.00000000e+00
0.00000000e+00
6.97615766e+02
6.89340519e+02
7.67935900e+02
6.79501560e+02
5.53069219e+02
0.00000000e+00
0.00000000e+00
0.00000000e+00
0.00000000e+00
0.00000000e+00
0.00000000e+00
8.88302583e+02
9.97065871e+02
0.00000000e+00
0.00000000e+00
0.00000000e+00
0.00000000e+00
0.00000000e+00
0.00000000e+00
1.02485491e+03
0.00000000e+00
1.09880304e+03
1.12078816e+03
1.22877522e+03
1.22678636e+03
8.55618011e+02
0.00000000e+00
4.96339788e+02
2.45172870e+02
9.11130950e+02
0.00000000e+00
1.03252794e+03
1.10306232e+03
0.00000000e+00
0.00000000e+00
5.99468070e+02
1.49768713e+03
8.29829640e+02
9.14788437e+02
6.62653071e+02
1.00190703e+03
1.34883164e+03
1.03645225e+03
1.33785851e+03
1.08892668e+03
1.08663127e+03
1.09238733e+03
1.56241133e+03
1.19572882e+03
7.58823799e+02
8.04778868e+02
7.08293096e+02
9.22248160e+02
1.22795476e+03
1.19845930e+03
0.00000000e+00
0.00000000e+00
9.40393130e+02
6.66068847e+02
1.00982212e+03
1.63926341e+03
1.31099994e+03
1.10576331e+03
1.33315420e+03
0.00000000e+00
9.36508730e+02
9.48300003e+02
0.00000000e+00
0.00000000e+00
4.36415039e+02
1.44364215e+03
6.87223190e+02
1.56584187e+03
1.13892338e+03
1.25254077e+03
1.22568447e+03
0.00000000e+00
7.31001273e+02
6.84257824e+02
9.01948535e+02
1.24153494e+03
1.25337592e+03
1.43244492e+03
1.18957886e+03
8.26053705e+02
1.42018246e+03
1.28859697e+03
1.45232407e+03
9.83181942e+02
8.69921082e+02
7.80444323e+02
5.88303685e+02
4.60112951e+02
1.22619260e+03
1.11192190e+03
1.17390356e+03
1.12951604e+03
0.00000000e+00
7.94066574e+02
7.68171556e+02
1.73024800e+03
8.50548183e+02
1.33583495e+03
1.09894843e+03
1.28140940e+03
7.70823840e+02
8.02003533e+02
9.78200328e+02
9.84781800e+02
1.41151923e+03
1.35422251e+03
1.43814257e+03
1.59636019e+03
1.06621808e+03
1.43893773e+03
5.38441670e+02
1.23879503e+03
1.11917432e+03
0.00000000e+00
0.00000000e+00
1.10570807e+03
5.89119878e+02
5.84770298e+02
9.98471537e+02
1.40404490e+03
1.05475100e+03
1.25998889e+03
8.85410861e+02
7.75050062e+02
1.11167823e+03
5.44153867e+02
9.76398383e+02
3.68762273e+02
1.71874398e+03
0.00000000e+00
1.72283832e+03
1.00139815e+03
1.10274712e+03
1.22655054e+03
0.00000000e+00
7.09932428e+02
8.73252832e+02
4.80342391e+02
7.63928443e+02
1.00210719e+03
5.98732801e+02
1.14819598e+03
1.08648310e+03
1.10449656e+03
1.24282399e+03
7.16382108e+02
9.58640325e+02
1.57682324e+03
6.85880585e+02
3.94698256e+02
1.20473491e+03
9.23314326e+02
8.78018683e+02
8.10179947e+02
1.04044270e+03
7.81325836e+02
0.00000000e+00
6.87292329e+02
3.86443074e+02
7.39707575e+02
7.76415693e+02
8.93989304e+02
1.07412280e+03
1.09688780e+03
1.06968534e+03
1.00937898e+03
8.58801609e+02
7.95766884e+02
1.36292249e+03
6.53467435e+02
3.79246665e+02
1.45770270e+03
8.41642956e+02
9.80224408e+02
0.00000000e+00
1.05297675e+03
9.81346779e+02
0.00000000e+00
9.52922637e+02
0.00000000e+00
1.50959398e+03
1.28402152e+03
9.04329369e+02
1.14005630e+03
9.73107507e+02
1.41782197e+03
1.44719633e+03
1.14703716e+03
1.25114211e+03
1.47774068e+03
5.84577182e+02
3.62963199e+02
6.03220596e+02
1.86019856e+03
1.58537061e+03
0.00000000e+00
1.21030104e+03
9.99306547e+02
6.85708841e+02
7.83208053e+02
4.39422885e+02
5.03115229e+02
7.10976447e+02
1.08304209e+03
1.06169038e+03
9.65311460e+02
1.07007374e+03
9.35377169e+02
8.29273825e+02
6.89196883e+02
1.06184884e+03
5.06480661e+02
3.60255979e+02
2.72814076e+02
7.13124230e+02
1.00334279e+03
6.51938520e+02
1.06339616e+03
1.03502980e+03
7.20651756e+02
8.25825199e+02
0.00000000e+00
6.57031706e+02
5.92911965e+02
6.65078097e+02
9.30798149e+02
9.99874000e+02
1.07958418e+03
1.08777312e+03
9.14889475e+02
1.03097755e+03
1.50426053e+03
1.10190786e+03
3.36874393e+02
5.24361549e+02
1.22853390e+03
1.79368615e+03
0.00000000e+00
1.21052818e+03
9.79117409e+02
5.65636803e+02
6.31472581e+02
0.00000000e+00
4.28008522e+02
4.59430638e+02
8.07756027e+02
1.07218070e+03
8.20116445e+02
1.12839922e+03
9.69979965e+02
1.19119930e+03
8.47654978e+02
8.07600380e+02
3.70595534e+02
7.26308296e+02
5.32492429e+02
6.51190368e+02
8.41633556e+02
0.00000000e+00
1.00239814e+03
9.59573796e+02
0.00000000e+00
9.20156162e+02
0.00000000e+00
7.85818523e+02
1.05599127e+03
5.33914284e+02
9.92931740e+02
1.00325313e+03
1.42607757e+03
9.43079330e+02
9.45534255e+02
1.26404559e+03
1.61714705e+03
1.21058115e+03
4.56871712e+02
5.81942356e+02
8.71862366e+02
1.41726956e+03
0.00000000e+00
1.18859071e+03
9.69339468e+02
0.00000000e+00
7.23767726e+02
0.00000000e+00
8.46890412e+02
5.04217754e+02
6.18194164e+02
1.00111582e+03
1.05540583e+03
1.06651633e+03
8.29805251e+02
7.88370772e+02
6.43374505e+02
8.87187156e+02
6.52210071e+02
3.55356843e+02
6.61060555e+02
8.72365546e+02
9.48844914e+02
0.00000000e+00
1.08154615e+03
0.00000000e+00
0.00000000e+00
8.09603223e+02
7.77351459e+02
5.82018959e+02
8.34534936e+02
6.55511106e+02
1.04259923e+03
1.06267200e+03
1.01122559e+03
7.52499727e+02
1.04719832e+03
7.58780027e+02
7.05642010e+02
5.79635753e+02
5.58179395e+02
5.07252335e+02
1.08844215e+03
6.41328640e+02
1.13328963e+03
1.17339334e+03
0.00000000e+00
0.00000000e+00
1.01866177e+03
8.75291877e+02
7.26693047e+02
7.12273340e+02
7.29598261e+02
7.31283742e+02
8.96848670e+02
9.35559406e+02
8.39458021e+02
7.96185643e+02
9.55310119e+02
7.61729328e+02
6.56883655e+02
5.77500625e+02
0.00000000e+00
6.49123450e+02
8.54402524e+02
9.73335020e+02
1.07518479e+03
1.06584504e+03
7.37146933e+02
9.85796639e+02
9.48679336e+02
6.93015290e+02
9.71158322e+02
6.59900112e+02
9.07869965e+02
9.12520341e+02
9.95389712e+02
8.73985737e+02
6.95620465e+02
7.57139808e+02
9.87303218e+02
8.28985717e+02
1.17724430e+03
6.49512133e+02
1.51532507e+03
7.15501340e+02
1.22997486e+03
8.97570761e+02
1.07531755e+03
0.00000000e+00
7.56311569e+02
6.73270531e+02
8.11225904e+02
5.89734392e+02
6.31359531e+02
8.92199225e+02
9.03200728e+02
9.90148807e+02
7.82610361e+02
9.50066152e+02
7.24114189e+02
1.06847785e+03
1.03251196e+03
7.28835212e+02
4.57353721e+02
4.23589957e+02
7.19023966e+02
6.20421922e+02
6.14305657e+02
1.27938906e+03
1.00523480e+03
8.09496416e+02
6.10214737e+02
5.46349534e+02
8.05694854e+02
5.18829673e+02
6.81444437e+02
8.34501944e+02
8.23961835e+02
0.00000000e+00
0.00000000e+00
0.00000000e+00
0.00000000e+00
5.65987801e+02
4.33696986e+02
4.54397464e+02
8.46973470e+02
4.87507051e+02
6.64705737e+02
6.77476997e+02
1.26804206e+03
0.00000000e+00
9.89248505e+02
6.65361464e+02
8.00063812e+02
5.70422090e+02
8.09519124e+02
7.41858021e+02
8.82326392e+02
9.55137940e+02
7.40253496e+02
9.77965601e+02
8.11399350e+02
1.01852401e+03
6.28937110e+02
5.88334487e+02
5.93889213e+02
6.41711491e+02
7.02811462e+02
9.24281204e+02
1.22359815e+03
1.08909039e+03
8.56238083e+02
0.00000000e+00
0.00000000e+00
0.00000000e+00
0.00000000e+00
0.00000000e+00
0.00000000e+00
0.00000000e+00
7.23790323e+02
8.08955697e+02
0.00000000e+00
5.79417040e+02
0.00000000e+00
3.35613861e+02
0.00000000e+00
0.00000000e+00
0.00000000e+00
0.00000000e+00
5.45627848e+02
0.00000000e+00
1.01334133e+03
8.09725726e+02
0.00000000e+00
0.00000000e+00
0.00000000e+00
7.92974860e+02
6.91439905e+02
8.41237298e+02
1.01579670e+03
0.00000000e+00
1.09758007e+03
1.39529271e+03
5.56086626e+02
3.14759145e+02
0.00000000e+00
6.94364711e+02
6.98651017e+02
8.70999077e+02
1.04412067e+03
0.00000000e+00
0.00000000e+00
0.00000000e+00
0.00000000e+00
1.58532334e+03
9.11628826e+02
8.54887715e+02
1.40444296e+03
5.96705226e+02
1.09156486e+03
1.44982315e+03
1.17726242e+03
8.23266240e+02
9.77526354e+02
9.85830088e+02
1.18159939e+03
0.00000000e+00
6.21235629e+02
1.03415863e+03
1.21775946e+03
1.16652440e+03
1.17937750e+03
1.02271222e+03
0.00000000e+00
0.00000000e+00
8.73348730e+02
1.21387466e+03
1.18868644e+03
1.41115206e+03
1.44232988e+03
1.21073143e+03
1.19376441e+03
1.19525660e+03
1.20203422e+03
1.40804919e+03
1.41704170e+03
1.62275282e+03
9.70596474e+02
9.49062725e+02
9.64804465e+02
1.67060115e+03
1.67230244e+03
1.37522357e+03
1.20535429e+03
0.00000000e+00
0.00000000e+00
8.25206412e+02
1.47129499e+03
1.63601032e+03
1.46169891e+03
1.69769455e+03
1.59071816e+03
1.44541175e+03
1.16714565e+03
9.16314875e+02
9.35206509e+02
8.20267601e+02
7.24427681e+02
1.70170558e+03
1.72866311e+03
1.57274456e+03
1.29362609e+03
1.30450774e+03
1.58296263e+03
1.63427616e+03
0.00000000e+00
1.12376216e+03
1.64005207e+03
1.71811803e+03
1.63474332e+03
1.36541139e+03
1.20187840e+03
1.31015045e+03
1.09024460e+03
1.31020753e+03
1.32973028e+03
1.24958660e+03
1.56726032e+03
1.36793744e+03
1.40609187e+03
1.57874881e+03
8.54587357e+02
1.43250704e+03
1.64957922e+03
1.34113892e+03
1.64325319e+03
7.07812193e+02
9.04190583e+02
9.95396544e+02
1.58596619e+03
8.56489962e+02
1.15881181e+03
1.49457140e+03
1.38026849e+03
1.29068001e+03
1.20158333e+03
1.24155759e+03
1.29778443e+03
1.01044103e+03
1.36252734e+03
1.39755886e+03
1.39801582e+03
1.13910620e+03
1.63000129e+03
1.76039172e+03
1.63727689e+03
1.88095364e+03
9.18015100e+02
1.05922266e+03
9.82188632e+02
1.49280297e+03
1.48255603e+03
1.06963112e+03
1.52464799e+03
8.88258662e+02
1.07277784e+03
1.02680291e+03
1.13166242e+03
1.44657720e+03
1.55123571e+03
1.26351484e+03
4.46751281e+02
7.45641359e+02
1.83685374e+03
1.18648029e+03
1.48210622e+03
1.55696200e+03
1.24286156e+03
9.46433154e+02
0.00000000e+00
7.69029585e+02
1.02038155e+03
1.29297999e+03
8.82709623e+02
1.05935903e+03
1.04524551e+03
1.37062312e+03
1.40557877e+03
1.54941871e+03
1.07013697e+03
1.30704619e+03
1.29520247e+03
1.38719591e+03
1.32518405e+03
6.49057455e+02
1.67717412e+03
1.76370483e+03
1.58075278e+03
0.00000000e+00
7.77094236e+02
0.00000000e+00
0.00000000e+00
1.55926600e+03
5.98107351e+02
9.42734527e+02
1.73697038e+03
1.35327046e+03
1.44741694e+03
1.09151378e+03
1.34878014e+03
9.41698735e+02
1.09306783e+03
1.83337376e+03
1.59739306e+03
1.67048569e+03
1.82923605e+03
1.81337912e+03
1.35016861e+03
1.87205599e+03
0.00000000e+00
9.19905852e+02
9.53443968e+02
0.00000000e+00
1.16702949e+03
4.56721296e+02
1.08917796e+03
1.26728463e+03
1.01321508e+03
1.57685773e+03
1.51726633e+03
9.34508449e+02
1.54334747e+03
1.32150661e+03
1.34491605e+03
1.56835919e+03
9.94300298e+02
1.91529455e+03
1.21532634e+03
1.16244066e+03
1.84002887e+03
0.00000000e+00
0.00000000e+00
0.00000000e+00
0.00000000e+00
1.00254469e+03
5.15243160e+02
9.45546858e+02
1.24860500e+03
7.37251174e+02
1.02240092e+03
1.40642329e+03
1.33375375e+03
1.59854902e+03
1.38545509e+03
1.78534744e+03
1.27771117e+03
1.30733254e+03
1.38055454e+03
1.35851919e+03
1.05361292e+03
1.91284223e+03
9.11009224e+02
0.00000000e+00
7.06792633e+02
0.00000000e+00
1.22339226e+03
5.48952697e+02
7.03081649e+02
1.61545785e+03
8.31807199e+02
1.63634884e+03
1.27790358e+03
1.27461454e+03
1.44140218e+03
8.75021913e+02
1.66416622e+03
1.70247371e+03
8.72383499e+02
1.28378264e+03
1.09539980e+03
1.05199466e+03
1.64898054e+03
0.00000000e+00
0.00000000e+00
0.00000000e+00
6.12654523e+02
1.44768486e+03
6.79583889e+02
1.24054849e+03
1.44066830e+03
1.43844424e+03
1.14470667e+03
1.46390089e+03
1.26352266e+03
1.43648959e+03
1.19884437e+03
1.75457071e+03
1.38153961e+03
1.82866715e+03
1.57221375e+03
1.52365116e+03
9.57495843e+02
1.91378362e+03
0.00000000e+00
6.75372559e+02
0.00000000e+00
7.82874582e+02
1.10210702e+03
8.57071632e+02
1.04276460e+03
8.01679069e+02
8.53061722e+02
1.14036134e+03
9.87149848e+02
1.16594795e+03
1.61471231e+03
1.44495066e+03
1.56674497e+03
8.47903187e+02
5.06578676e+02
7.73919849e+02
1.50909643e+03
1.31928316e+03
1.25977675e+03
0.00000000e+00
0.00000000e+00
0.00000000e+00
1.06525150e+03
1.00001991e+03
9.41293441e+02
9.51487025e+02
8.55984071e+02
7.52942588e+02
8.34681153e+02
1.18889188e+03
9.91540023e+02
1.15157408e+03
1.16462907e+03
1.57789109e+03
5.11581488e+02
1.09849376e+03
1.62444892e+03
1.97875050e+03
1.12795962e+03
1.31384648e+03
1.24310914e+03
0.00000000e+00
0.00000000e+00
1.06588503e+03
1.15286278e+03
8.94762129e+02
1.45314784e+03
1.18243180e+03
9.96315044e+02
1.01607602e+03
1.24279239e+03
1.21103655e+03
1.71368028e+03
1.47678963e+03
1.38470459e+03
8.72356186e+02
1.09145411e+03
1.84048915e+03
1.95764294e+03
8.07024261e+02
1.17644208e+03
1.13166632e+03
9.38504367e+02
1.10663789e+03
1.00909286e+03
1.63573411e+03
9.51603016e+02
1.21795873e+03
1.36324436e+03
1.66248145e+03
1.00979799e+03
1.14579795e+03
9.93480929e+02
1.53918611e+03
8.93197458e+02
1.71959852e+03
8.92398294e+02
1.27531072e+03
1.97947168e+03
1.95543876e+03
1.20329565e+03
2.03261752e+03
1.16565435e+03
7.64520192e+02
1.01562872e+03
9.49961714e+02
8.81946543e+02
8.41923235e+02
1.12313921e+03
8.80615241e+02
9.31523791e+02
9.60412784e+02
8.57061140e+02
8.71377081e+02
8.51167873e+02
6.08103477e+02
5.28542542e+02
8.61305572e+02
9.55558132e+02
8.49443737e+02
1.64030467e+03
9.67736554e+02
9.98657628e+02
8.61476966e+02
1.03448848e+03
1.00190570e+03
9.33998740e+02
1.21555440e+03
1.02185847e+03
9.97474259e+02
1.22555359e+03
9.68241735e+02
1.06362634e+03
1.46691133e+03
1.32127408e+03
1.23852181e+03
1.11101966e+03
1.61438256e+03
8.15678419e+02
1.12397346e+03
1.33856759e+03
1.53694071e+03
1.22486738e+03
1.84895887e+03
9.71702774e+02
1.12572845e+03
9.91588577e+02
9.41864447e+02
5.87582370e+02
8.98694978e+02
1.00256109e+03
9.06962321e+02
6.62454365e+02
8.77227741e+02
6.85937451e+02
0.00000000e+00
0.00000000e+00
0.00000000e+00
0.00000000e+00
0.00000000e+00
8.72031600e+02
7.90643509e+02
9.81771099e+02
7.92947567e+02
1.11243929e+03
7.29389963e+02
1.10232822e+03
9.00948412e+02
9.02983609e+02
0.00000000e+00
6.07539574e+02
0.00000000e+00
0.00000000e+00
0.00000000e+00
0.00000000e+00
0.00000000e+00
8.25754491e+02
0.00000000e+00
0.00000000e+00
0.00000000e+00
0.00000000e+00
0.00000000e+00
0.00000000e+00
0.00000000e+00
0.00000000e+00
0.00000000e+00
0.00000000e+00
8.36928284e+02
0.00000000e+00
8.07837178e+02
5.00994087e+02
1.09121269e+03
8.84047797e+02
8.10897772e+02