# vtk DataFile Version 3.0
MPS 3D Simulation Step 6600
ASCII
DATASET UNSTRUCTURED_GRID
POINTS 20213 double
-1.09349803e-03 3.70291561e-04 -8.41863084e-04
-1.01115033e-03 2.12554268e-04 -8.41890566e-04
-9.04226380e-04 3.02449713e-04 -1.02210279e-03
-8.60612041e-04 3.50213358e-04 -1.07801598e-03
-7.94040956e-04 1.93048839e-04 -1.05896478e-03
-8.08043099e-04 3.93502898e-04 -1.12729717e-03
-6.25824658e-04 2.65116038e-04 -1.21784089e-03
-4.97221361e-04 2.69691214e-04 -1.28740437e-03
-4.44423672e-04 1.18797640e-04 -1.17855432e-03
-3.77136838e-04 7.97843650e-04 -1.12609249e-03
-1.87138045e-04 8.52989047e-04 -1.25269638e-03
-2.66512685e-04 7.86743638e-04 -1.25673096e-03
-8.44315558e-05 6.13599269e-04 -1.22941987e-03
-6.78618695e-05 1.84659813e-04 -1.32406514e-03
3.44531464e-05 1.54136277e-04 -1.30316085e-03
5.03787950e-04 1.30173739e-04 -1.18564210e-03
2.75162470e-04 6.68018729e-04 -8.77146265e-04
5.33641637e-04 1.97783816e-04 -1.21795847e-03
5.89657377e-04 5.47561192e-04 -1.04089418e-03
7.99923025e-04 6.73053226e-04 -9.07279820e-04
1.04133945e-03 4.14284670e-04 -7.85236072e-04
-1.05125958e-03 2.94728832e-04 -8.52657895e-04
-9.94770690e-04 2.72403721e-04 -9.08343689e-04
-9.67763781e-04 3.35001937e-04 -9.72934843e-04
-8.74499941e-04 4.36941174e-04 -1.07993420e-03
-8.21642142e-04 5.99085257e-04 -1.13931977e-03
-9.15220016e-04 5.07067386e-04 -1.05715751e-03
-7.53308223e-04 4.60150651e-04 -1.17451820e-03
-5.42514715e-04 3.87043552e-04 -1.29117770e-03
-3.63544903e-04 2.05250732e-04 -1.29991579e-03
-3.90504707e-04 1.45914932e-04 -1.25380790e-03
-7.51019484e-05 2.59200637e-04 -1.35223310e-03
1.03359288e-04 2.00368274e-04 -1.32557314e-03
1.48028081e-04 3.80525060e-04 -1.37982507e-03
2.28049945e-04 3.37509315e-04 -1.36585962e-03
2.45357731e-04 2.61151500e-04 -1.33885096e-03
4.04028574e-04 1.24989040e-04 -1.23144061e-03
4.14839592e-04 2.48206444e-04 -1.29196170e-03
4.87452548e-04 5.78832898e-04 -1.20926025e-03
4.49959098e-04 1.86292507e-04 -1.25083970e-03
6.06235441e-04 2.01883285e-04 -1.18076225e-03
8.43097915e-04 1.27236815e-04 -9.43417443e-04
-1.03188855e-03 3.51640632e-04 -9.11807924e-04
-1.00447434e-03 4.10410371e-04 -9.60300116e-04
-1.01039675e-03 6.15309246e-04 -9.75183732e-04
-7.79125734e-04 3.16936518e-04 -1.13106072e-03
-9.25027269e-04 3.84135588e-04 -1.02986459e-03
-8.21128437e-04 4.83988972e-04 -1.12755134e-03
-5.64193140e-04 3.02625974e-04 -1.26451761e-03
-6.74702055e-04 3.30623054e-04 -1.20981091e-03
-4.01718478e-04 3.61598706e-04 -1.33969627e-03
-2.92520108e-04 2.27715136e-04 -1.32216055e-03
-1.19742381e-04 4.23529738e-04 -1.39572967e-03
7.21276207e-06 2.21711653e-04 -1.33704231e-03
1.40227876e-04 4.58661033e-04 -1.39087153e-03
3.06129205e-04 3.25290031e-04 -1.34891345e-03
2.81331545e-04 1.91557372e-04 -1.30582319e-03
3.99920414e-04 4.05179997e-04 -1.33955235e-03
4.67112920e-04 3.19823401e-04 -1.29731715e-03
3.87007948e-04 3.23975025e-04 -1.32567054e-03
6.64117168e-04 2.68948607e-04 -1.17626231e-03
7.47637189e-04 1.81088264e-04 -1.06398152e-03
7.60869224e-04 1.19192169e-04 -9.92116489e-04
-1.12606987e-03 4.52357508e-04 -8.23788935e-04
-1.03468699e-03 4.87353347e-04 -9.41247588e-04
-9.89156870e-04 5.31261702e-04 -9.92735519e-04
-8.65503500e-04 5.50434034e-04 -1.10068461e-03
-7.66517656e-04 5.43196617e-04 -1.17378369e-03
-6.81149751e-04 4.20225992e-04 -1.21853326e-03
-6.14788798e-04 3.62369046e-04 -1.25272684e-03
-3.30423809e-04 3.02144591e-04 -1.34066397e-03
-2.59332601e-04 3.39696086e-04 -1.36438515e-03
-3.04064990e-04 1.48682356e-04 -1.27319647e-03
-4.98592605e-05 4.59871036e-04 -1.40346424e-03
-1.35512686e-04 1.46681544e-04 -1.30120443e-03
-1.27233021e-05 3.89385192e-04 -1.38911718e-03
-6.72740804e-06 3.04920040e-04 -1.36651412e-03
2.37840646e-04 4.11050666e-04 -1.37615261e-03
3.34720971e-04 2.53789610e-04 -1.31943476e-03
4.62124321e-04 4.84666029e-04 -1.32531358e-03
7.14967970e-04 3.31642680e-04 -1.16902886e-03
7.28807764e-04 2.51309607e-04 -1.12382083e-03
7.99075192e-04 2.41294885e-04 -1.06737500e-03
8.75583168e-04 2.46938047e-04 -1.00968176e-03
-1.14936488e-03 5.34747721e-04 -8.06425410e-04
-9.61421763e-04 6.65463911e-04 -1.02205520e-03
-9.59934747e-04 4.52430280e-04 -1.01242360e-03
-7.64150579e-04 6.35202329e-04 -1.18080612e-03
-6.16112989e-04 5.29588649e-04 -1.26580635e-03
-6.86510897e-04 5.03168495e-04 -1.22248760e-03
-3.23618402e-04 3.91054646e-04 -1.36131827e-03
-2.42926050e-04 4.33964561e-04 -1.38237090e-03
-1.84315864e-04 3.74907493e-04 -1.38084351e-03
-1.09804539e-04 5.22268086e-04 -1.40882286e-03
-4.19327076e-05 5.62295444e-04 -1.40992020e-03
-1.53704154e-04 3.01953042e-04 -1.36445872e-03
1.53901973e-05 5.01900447e-04 -1.40393124e-03
2.63256984e-04 5.63121559e-04 -1.37450018e-03
6.12427868e-05 4.31109486e-04 -1.39397423e-03
3.22632209e-04 4.03593606e-04 -1.35973612e-03
3.82043090e-04 4.86680018e-04 -1.35026068e-03
5.87691371e-04 2.70009584e-04 -1.22370022e-03
7.79755638e-04 3.14197228e-04 -1.11648726e-03
8.48302519e-04 3.08381463e-04 -1.06196469e-03
8.31859954e-04 3.88528001e-04 -1.10099113e-03
-1.15854294e-03 6.39944452e-04 -8.03151642e-04
-1.05518796e-03 5.70595103e-04 -9.26861483e-04
-9.05434138e-04 7.10062904e-04 -1.06660318e-03
-9.46317000e-04 5.85387348e-04 -1.03671798e-03
-7.05272507e-04 5.80100701e-04 -1.21821797e-03
-5.40295952e-04 4.74443633e-04 -1.29949908e-03
-4.70788503e-04 4.21690558e-04 -1.32394977e-03
-3.95126644e-04 4.46481089e-04 -1.35107695e-03
-1.76573167e-04 4.83288695e-04 -1.39992978e-03
-2.47939644e-04 5.24398322e-04 -1.39140890e-03
-1.78592607e-04 5.75694414e-04 -1.40435920e-03
-8.50199080e-05 3.47275533e-04 -1.37900427e-03
2.16878482e-04 4.84614485e-04 -1.38447946e-03
3.01693043e-04 4.84082719e-04 -1.36951561e-03
7.64546076e-05 2.69301639e-04 -1.35103065e-03
2.81650434e-04 7.23762234e-04 -1.35971550e-03
3.47619772e-04 5.65001916e-04 -1.35762529e-03
4.70772755e-04 3.98591489e-04 -1.31203385e-03
6.35224930e-04 3.39575827e-04 -1.21962948e-03
7.65514125e-04 3.99827677e-04 -1.15423440e-03
9.53139329e-04 4.48137155e-04 -1.01709562e-03
-1.11427016e-03 5.98530768e-04 -8.58275618e-04
-1.09469812e-03 5.16330769e-04 -8.75693694e-04
-9.75260995e-04 7.44197257e-04 -9.97363605e-04
-8.38391130e-04 6.79672541e-04 -1.12542614e-03
-6.96588415e-04 6.67267085e-04 -1.22274248e-03
-5.43878271e-04 5.56686603e-04 -1.30269335e-03
-4.68688636e-04 5.06684180e-04 -1.33092960e-03
-3.19777232e-04 4.76916889e-04 -1.37219985e-03
-3.92930003e-04 5.34435744e-04 -1.35532067e-03
-3.21941521e-04 5.68652012e-04 -1.37478290e-03
-1.07529638e-04 6.17392591e-04 -1.40800233e-03
4.15522596e-05 5.94972647e-04 -1.40157487e-03
9.35106826e-05 5.27408990e-04 -1.39643039e-03
1.75828019e-04 5.56199670e-04 -1.38685070e-03
2.13813100e-04 6.36603966e-04 -1.37682503e-03
5.38301205e-04 4.91286619e-04 -1.29861966e-03
5.17412977e-04 5.68757920e-04 -1.30998639e-03
5.50630476e-04 3.33735750e-04 -1.26207124e-03
5.47735462e-04 4.10523305e-04 -1.28224240e-03
8.84610433e-04 4.57115908e-04 -1.07330637e-03
8.72804333e-04 5.39509283e-04 -1.09406726e-03
-1.16062299e-03 7.42821711e-04 -7.84315135e-04
-1.07617314e-03 6.52148964e-04 -9.04523067e-04
-1.02876820e-03 6.97532488e-04 -9.51865660e-04
-8.94660714e-04 6.29478117e-04 -1.08192885e-03
-6.38869789e-04 6.08261730e-04 -1.25819192e-03
-4.72446930e-04 5.91601092e-04 -1.33067180e-03
-4.90880534e-04 6.69508321e-04 -1.32242863e-03
-3.99510126e-04 6.23107935e-04 -1.35470015e-03
-3.27081921e-04 6.57576669e-04 -1.37140327e-03
-2.50146700e-04 6.14872627e-04 -1.39159674e-03
-1.75715322e-04 6.67061163e-04 -1.39984764e-03
-2.87073721e-05 6.50016372e-04 -1.40471394e-03
5.00616067e-05 6.83439891e-04 -1.39375923e-03
1.20923819e-04 6.18149269e-04 -1.39171109e-03
2.06368848e-04 7.20651503e-04 -1.37536493e-03
4.34688261e-04 5.62044864e-04 -1.33667081e-03
3.89768399e-04 6.38490576e-04 -1.34481809e-03
5.93732904e-04 5.83332877e-04 -1.28017936e-03
6.23164638e-04 4.17273031e-04 -1.24660148e-03
8.19332409e-04 4.72260115e-04 -1.12800124e-03
8.49003302e-04 6.23146671e-04 -1.11518354e-03
-1.12165518e-03 6.99310997e-04 -8.46027414e-04
-1.07543163e-03 7.46993588e-04 -8.93668085e-04
-1.02049462e-03 7.88190019e-04 -9.40623595e-04
-7.09130500e-04 7.46039253e-04 -1.20661407e-03
-6.27859508e-04 6.94304544e-04 -1.25888562e-03
-5.64112897e-04 6.33859645e-04 -1.29296201e-03
-4.89211046e-04 7.54157064e-04 -1.31241984e-03
-4.16742065e-04 7.01756234e-04 -1.34393011e-03
-3.42690997e-04 7.38003265e-04 -1.35743108e-03
-2.54751619e-04 6.99391927e-04 -1.38424906e-03
-1.83884915e-04 7.48865178e-04 -1.38797771e-03
-9.73355406e-05 7.04091487e-04 -1.40151907e-03
-1.60439627e-05 7.39759462e-04 -1.39337094e-03
7.11329792e-05 7.67806208e-04 -1.38189578e-03
1.31808987e-04 7.00681976e-04 -1.38484737e-03
3.57330404e-04 7.19260545e-04 -1.34216284e-03
4.03432422e-04 7.96647184e-04 -1.31591339e-03
4.77264132e-04 6.41822188e-04 -1.31901734e-03
6.10655746e-04 5.00201093e-04 -1.26481903e-03
6.94155980e-04 4.09318479e-04 -1.20293482e-03
8.05859264e-04 5.55224221e-04 -1.14948107e-03
-1.11554524e-03 7.94357941e-04 -8.35072032e-04
-1.00629357e-03 8.81818642e-04 -9.22763354e-04
-9.13895471e-04 7.88267201e-04 -1.04034752e-03
-7.76374356e-04 7.14188091e-04 -1.16868305e-03
-7.18676722e-04 8.23919064e-04 -1.18148233e-03
-5.58568772e-04 7.18902100e-04 -1.29150370e-03
-5.70816227e-04 7.97742900e-04 -1.26874534e-03
-4.17339153e-04 7.86422623e-04 -1.32821094e-03
-3.44783831e-04 8.22940856e-04 -1.33937639e-03
-2.69275911e-04 7.80332994e-04 -1.36714793e-03
-1.94886869e-04 8.30260878e-04 -1.36834146e-03
-1.09798813e-04 7.83743290e-04 -1.38880161e-03
-3.52965600e-05 8.16931810e-04 -1.38250741e-03
3.94654494e-05 8.41497210e-04 -1.37295082e-03
1.55009227e-04 7.89388183e-04 -1.36976351e-03
3.20287130e-04 8.00668367e-04 -1.33418591e-03
4.82614396e-04 8.01249341e-04 -1.29179109e-03
4.38830636e-04 7.14609255e-04 -1.32249328e-03
6.65262930e-04 5.76756827e-04 -1.24314635e-03
7.52916656e-04 4.84328152e-04 -1.18009929e-03
8.12936853e-04 7.06278075e-04 -1.13310712e-03
-1.06208187e-03 8.35953500e-04 -8.82538325e-04
-9.85047689e-04 9.69031581e-04 -9.03583111e-04
[...]
POINT_DATA 20213
SCALARS pressure double 1
LOOKUP_TABLE default
1.81737123e+03
1.16306962e+03
9.42236503e+02
0.00000000e+00
0.00000000e+00
9.59736495e+02
0.00000000e+00
0.00000000e+00
4.94851273e+02
9.51399292e+02
6.48036182e+02
5.77526454e+02
9.82238404e+02
4.23217982e+02
0.00000000e+00
8.12677158e+02
1.78122192e+03
8.63289602e+02
1.21245810e+03
1.24972792e+03
1.31411242e+03
1.51755556e+03
1.17911830e+03
1.23566529e+03
1.05499205e+03
7.88586120e+02
1.17025165e+03
8.46651187e+02
0.00000000e+00
0.00000000e+00
0.00000000e+00
0.00000000e+00
0.00000000e+00
7.60178375e+02
0.00000000e+00
0.00000000e+00
8.22981949e+02
1.06970083e+03
9.64421598e+02
0.00000000e+00
0.00000000e+00
0.00000000e+00
0.00000000e+00
1.49119925e+03
1.23247652e+03
8.08356022e+02
0.00000000e+00
0.00000000e+00
0.00000000e+00
7.07654205e+02
0.00000000e+00
0.00000000e+00
8.08816444e+02
0.00000000e+00
0.00000000e+00
0.00000000e+00
8.62992896e+02
9.41501519e+02
0.00000000e+00
9.71574495e+02
0.00000000e+00
0.00000000e+00
6.00099655e+02
1.89060731e+03
1.57246691e+03
1.36138607e+03
1.04449857e+03
0.00000000e+00
6.74429153e+02
0.00000000e+00
0.00000000e+00
0.00000000e+00
0.00000000e+00
8.46989211e+02
0.00000000e+00
6.86315022e+02
0.00000000e+00
9.67549261e+02
0.00000000e+00
8.39895516e+02
7.98939138e+02
7.68082771e+02
7.12209245e+02
7.82899092e+02
1.87134031e+03
0.00000000e+00
1.30729016e+03
0.00000000e+00
0.00000000e+00
6.55415098e+02
0.00000000e+00
0.00000000e+00
0.00000000e+00
8.16422569e+02
0.00000000e+00
0.00000000e+00
0.00000000e+00
7.04535742e+02
0.00000000e+00
0.00000000e+00
9.22058354e+02
0.00000000e+00
0.00000000e+00
0.00000000e+00
0.00000000e+00
1.42308380e+03
1.49494177e+03
0.00000000e+00
1.04417738e+03
0.00000000e+00
0.00000000e+00
0.00000000e+00
0.00000000e+00
7.40131398e+02
0.00000000e+00
5.99800260e+02
0.00000000e+00
8.04556472e+02
8.12277388e+02
6.56643961e+02
0.00000000e+00
0.00000000e+00
9.31393742e+02
8.09774870e+02
0.00000000e+00
8.40050489e+02
1.66123776e+03
1.72739253e+03
9.60810380e+02
0.00000000e+00
6.91578186e+02
5.81958316e+02
0.00000000e+00
0.00000000e+00
0.00000000e+00
0.00000000e+00
6.71035449e+02
0.00000000e+00
6.20274512e+02
8.14961711e+02
5.86152933e+02
0.00000000e+00
7.64690601e+02
8.58544441e+02
0.00000000e+00
0.00000000e+00
7.01007301e+02
0.00000000e+00
0.00000000e+00
1.05028431e+03
0.00000000e+00
7.24309043e+02
5.21491351e+02
0.00000000e+00
0.00000000e+00
0.00000000e+00
0.00000000e+00
0.00000000e+00
0.00000000e+00
0.00000000e+00
0.00000000e+00
0.00000000e+00
0.00000000e+00
0.00000000e+00
9.10971609e+02
0.00000000e+00
0.00000000e+00
0.00000000e+00
0.00000000e+00
0.00000000e+00
9.54680275e+02
7.35813838e+02
7.31412952e+02
7.82848120e+02
0.00000000e+00
0.00000000e+00
3.31206208e+02
0.00000000e+00
0.00000000e+00
5.97501511e+02
7.56622553e+02
6.63810457e+02
0.00000000e+00
0.00000000e+00
0.00000000e+00
6.93764840e+02
0.00000000e+00
7.69536649e+02
9.35510369e+02
0.00000000e+00
0.00000000e+00
7.93385759e+02
0.00000000e+00
8.27188306e+02
0.00000000e+00
0.00000000e+00
0.00000000e+00
0.00000000e+00
0.00000000e+00
0.00000000e+00
0.00000000e+00
8.18270985e+02
8.25118989e+02
0.00000000e+00
0.00000000e+00
0.00000000e+00
0.00000000e+00
9.13386863e+02
0.00000000e+00
1.09207486e+03
0.00000000e+00
8.40217533e+02
0.00000000e+00
7.75695940e+02
0.00000000e+00
9.20001235e+02
0.00000000e+00
0.00000000e+00
0.00000000e+00
0.00000000e+00
7.74943830e+02
0.00000000e+00
0.00000000e+00
9.00084978e+02
0.00000000e+00
0.00000000e+00
0.00000000e+00
0.00000000e+00
0.00000000e+00
0.00000000e+00
1.03269188e+03
0.00000000e+00
0.00000000e+00
0.00000000e+00
0.00000000e+00
9.20609476e+02
9.46541963e+02
8.02130063e+02
0.00000000e+00
0.00000000e+00
0.00000000e+00
0.00000000e+00
9.04506191e+02
8.83798545e+02
0.00000000e+00
0.00000000e+00
0.00000000e+00
0.00000000e+00
0.00000000e+00
8.53912132e+02
1.15782027e+03
8.91058209e+02
0.00000000e+00
7.22829600e+02
0.00000000e+00
8.18146494e+02
1.03925659e+03
9.15048891e+02
0.00000000e+00
0.00000000e+00
0.00000000e+00
0.00000000e+00
6.98823811e+02
9.15139946e+02
0.00000000e+00
0.00000000e+00
0.00000000e+00
0.00000000e+00
0.00000000e+00
6.42045793e+02
0.00000000e+00
0.00000000e+00
1.10184659e+03
0.00000000e+00
8.26183497e+02
7.31761003e+02
0.00000000e+00
8.33791450e+02
0.00000000e+00
7.11785787e+02
0.00000000e+00
0.00000000e+00
0.00000000e+00
7.52395074e+02
8.64004441e+02
0.00000000e+00
0.00000000e+00
0.00000000e+00
0.00000000e+00
7.33069695e+02
0.00000000e+00
0.00000000e+00
0.00000000e+00
0.00000000e+00
0.00000000e+00
0.00000000e+00
0.00000000e+00
0.00000000e+00
0.00000000e+00
0.00000000e+00
5.93932382e+02
0.00000000e+00
0.00000000e+00
0.00000000e+00
8.16086107e+02
7.49689326e+02
7.63134673e+02
0.00000000e+00
4.48199769e+02
0.00000000e+00
9.09219974e+02
1.00547333e+03
0.00000000e+00
0.00000000e+00
0.00000000e+00
7.91005167e+02
0.00000000e+00
0.00000000e+00
0.00000000e+00
0.00000000e+00
6.88034210e+02
0.00000000e+00
0.00000000e+00
4.64482740e+02
0.00000000e+00
0.00000000e+00
0.00000000e+00
6.19595215e+02
0.00000000e+00
0.00000000e+00
0.00000000e+00
8.88228043e+02
1.03182772e+03
0.00000000e+00
0.00000000e+00
0.00000000e+00
0.00000000e+00
0.00000000e+00
0.00000000e+00
0.00000000e+00
0.00000000e+00
6.74879969e+02
0.00000000e+00
0.00000000e+00
0.00000000e+00
0.00000000e+00
8.16544681e+02
0.00000000e+00
0.00000000e+00
0.00000000e+00
6.12246469e+02
7.96295155e+02
0.00000000e+00
9.25846146e+02
1.03327476e+03
8.06821120e+02
9.79670615e+02
0.00000000e+00
0.00000000e+00
5.26186916e+02
0.00000000e+00
0.00000000e+00
9.09000420e+02
0.00000000e+00
0.00000000e+00
5.72631061e+02
0.00000000e+00
0.00000000e+00
0.00000000e+00
0.00000000e+00
6.95609228e+02
0.00000000e+00
6.86890919e+02
0.00000000e+00
7.99321715e+02
0.00000000e+00
9.41331715e+02
0.00000000e+00
7.82076727e+02
5.92339434e+02
0.00000000e+00
0.00000000e+00
0.00000000e+00
9.21535291e+02
0.00000000e+00
9.18343713e+02
8.27610214e+02
0.00000000e+00
0.00000000e+00
7.39520404e+02
7.08188095e+02
0.00000000e+00
6.79770289e+02
0.00000000e+00
8.30500910e+02
0.00000000e+00
7.84519271e+02
8.53924431e+02
8.12399158e+02
0.00000000e+00
0.00000000e+00
0.00000000e+00
0.00000000e+00
7.96516228e+02
8.73609818e+02
7.78919103e+02
8.68755630e+02
6.54869015e+02
0.00000000e+00
0.00000000e+00
6.37094830e+02
5.68289803e+02
0.00000000e+00
0.00000000e+00
6.80768554e+02
0.00000000e+00
6.98095787e+02
6.38336702e+02
0.00000000e+00
8.48002973e+02
0.00000000e+00
0.00000000e+00
0.00000000e+00
7.55999450e+02
8.75342980e+02
9.65845833e+02
0.00000000e+00
0.00000000e+00
0.00000000e+00
0.00000000e+00
0.00000000e+00
4.55664963e+02
0.00000000e+00
6.17559545e+02
6.20406936e+02
6.10817358e+02
0.00000000e+00
0.00000000e+00
0.00000000e+00
7.41489627e+02
0.00000000e+00
1.54795201e+03
1.73437686e+03
1.58516303e+03
0.00000000e+00
0.00000000e+00
0.00000000e+00
1.20449334e+03
8.87401582e+02
0.00000000e+00
1.12615371e+03
1.45259072e+03
1.37297558e+03
7.74311010e+02
8.48401354e+02
8.43422947e+02
1.57171956e+03
9.81671312e+02
1.17265408e+03
1.21724399e+03
6.86304914e+02
0.00000000e+00
1.82025639e+03
1.23098589e+03
1.06853564e+03
1.56619007e+03
7.69390253e+02
1.37817052e+03
1.03763446e+03
1.19812634e+03
8.32460438e+02
1.60505001e+03
2.22973046e+03
2.07732506e+03
9.02476537e+02
2.16365707e+03
1.82712225e+03
1.31442503e+03
1.28607985e+03
1.21142392e+03
1.34546982e+03
1.12557081e+03
0.00000000e+00
1.78162555e+03
1.22324614e+03
1.05566276e+03
1.55947831e+03
7.40871328e+02
1.03744297e+03
1.64990692e+03
0.00000000e+00
4.67046559e+02
4.70124723e+02
0.00000000e+00
0.00000000e+00
0.00000000e+00
6.62565966e+02
2.23682584e+03
9.36915433e+02
1.21812064e+03
9.82746962e+02
1.35077657e+03
1.40451805e+03
6.99895246e+02
1.81981847e+03
1.02053126e+03
1.89659410e+03
9.63909443e+02
8.98137419e+02
1.71520159e+03
8.25214475e+02
1.27785248e+03
7.88639467e+02
1.12403506e+03
9.72256080e+02
1.17996310e+03
1.74127308e+03
1.17270446e+03
1.08763798e+03
7.87218588e+02
1.57481486e+03
1.11694957e+03
1.13938327e+03
1.71043257e+03
9.47277746e+02
1.60861849e+03
1.18564303e+03
1.70155318e+03
1.58232193e+03
1.88236995e+03
1.67763163e+03
1.48555081e+03
7.98711568e+02
8.95175040e+02
1.61320938e+03
1.81239396e+03
2.03965944e+03
8.22057291e+02
1.33655649e+03
7.37042978e+02
2.08578727e+03
1.12758886e+03
1.12230364e+03
1.18848347e+03
9.83192205e+02
1.00523200e+03
1.77116536e+03
1.93353872e+03
9.19758452e+02
8.39627292e+02
1.97995473e+03
0.00000000e+00
1.91451544e+03
1.23279031e+03
7.44173906e+02
9.23493756e+02
2.00221152e+03
8.92995539e+02
1.54644158e+03
1.61026545e+03
9.39390446e+02
0.00000000e+00
1.19110630e+03
1.16061042e+03
8.69861713e+02
1.30341792e+03
9.37734317e+02
1.75135530e+03
1.26337684e+03
1.09243663e+03
1.23589631e+03
1.30094450e+03
7.34184885e+02
1.57170470e+03
1.10979131e+03
7.04254111e+02
1.93901153e+03
9.06829910e+02
1.44887161e+03
2.13535793e+03
1.29423692e+03
1.26850657e+03
1.36228968e+03
1.23380558e+03
1.06247762e+03
1.01809416e+03
8.49118378e+02
0.00000000e+00
1.73379036e+03
9.44069306e+02
8.63446221e+02
1.16316674e+03
1.22062708e+03
1.51879159e+03
9.92321195e+02
1.72315300e+03
1.17515398e+03
1.39420301e+03
1.19229607e+03
1.03468231e+03
2.12354887e+03
1.27293565e+03
1.69568390e+03
1.83797078e+03
1.04378597e+03
9.50532105e+02
0.00000000e+00
9.33634747e+02
7.88311503e+02
1.55537408e+03
1.61626262e+03
8.31989681e+02
1.02467366e+03
1.32394818e+03
1.32440685e+03
1.08972493e+03
1.47341909e+03
1.83682328e+03
9.36579060e+02
1.62594381e+03
2.04225268e+03
1.28620012e+03
1.49043623e+03
8.30101304e+02
9.72114007e+02
2.31076626e+03
2.19189913e+03
0.00000000e+00
1.08479255e+03
0.00000000e+00
1.31298875e+03
1.72158285e+03
0.00000000e+00
1.02853964e+03
1.07071880e+03
8.37306328e+02
8.11265583e+02
8.98162860e+02
1.47714675e+03
1.02366741e+03
9.52393196e+02
1.04154452e+03
2.23168592e+03
1.06294679e+03
8.67041613e+02
1.06074730e+03
1.03149856e+03
1.07054529e+03
8.79081374e+02
9.11623146e+02
9.62290333e+02
0.00000000e+00
1.19665996e+03
0.00000000e+00
1.09068752e+03
7.83618297e+02
1.06520148e+03
8.72501346e+02
1.25948975e+03
1.17530637e+03
1.54457562e+03
1.01293786e+03
1.71470948e+03
9.07995815e+02
1.81440103e+03
8.29627741e+02
8.74451158e+02
1.68889712e+03
2.26456918e+03
9.59992495e+02
1.30553616e+03
9.89453924e+02
0.00000000e+00
1.13481846e+03
0.00000000e+00
7.72479756e+02
7.07570654e+02
9.15945473e+02
1.06527207e+03
7.74471354e+02
1.99169463e+03
1.21598971e+03
1.89039628e+03
1.24757234e+03
1.58986470e+03
8.84552807e+02
1.55819619e+03
8.03940598e+02
8.10031839e+02
8.22739784e+02
8.52843362e+02
8.43017826e+02
0.00000000e+00
8.51285472e+02
1.28364753e+03
8.29431994e+02
1.45068055e+03
1.39944367e+03
8.53357761e+02
1.13565941e+03
1.36293861e+03
1.88946097e+03
1.02256566e+03
1.20210803e+03
2.00813991e+03
9.71492799e+02
2.10196841e+03
9.74140095e+02
9.90342489e+02
1.04532750e+03
2.30586320e+03
1.02139427e+03
1.99311592e+03
0.00000000e+00
0.00000000e+00
8.08283400e+02
8.22329002e+02
1.19882375e+03
8.18405345e+02
1.00173537e+03
1.18215900e+03
1.13384027e+03
1.54155970e+03
9.76575154e+02
1.02963853e+03
8.15879082e+02
1.04626144e+03
8.19923017e+02
8.32739246e+02
9.81737887e+02
1.16789812e+03
1.27510267e+03
1.14535611e+03
1.00402103e+03
0.00000000e+00
9.14261185e+02
8.93875099e+02
1.01103074e+03
1.17830802e+03
1.24382341e+03
1.16741004e+03
1.38898782e+03
2.01851790e+03
1.52210008e+03
7.20053088e+02
1.80951202e+03
7.49338851e+02
8.50920258e+02
7.96026372e+02
1.17276207e+03
1.30014268e+03
1.97427127e+03
7.50868143e+02
1.03526999e+03
9.00184689e+02
0.00000000e+00
1.06344303e+03
9.84930456e+02
1.15702800e+03
9.61505321e+02
1.10359385e+03
0.00000000e+00
1.16607769e+03
9.25966348e+02
1.03873070e+03
1.05209769e+03
9.38429210e+02
1.56804031e+03
9.59161558e+02
8.01153413e+02
7.07850722e+02
7.54632671e+02
1.65850630e+03
1.05676034e+03
1.18382741e+03
8.23728273e+02
0.00000000e+00
9.77807889e+02
1.23133787e+03
1.26208205e+03
1.11376434e+03
1.70879434e+03
9.49771805e+02
9.92732746e+02
1.02673711e+03
1.63082636e+03
7.90750047e+02
5.97478898e+02
6.81727405e+02
1.24168153e+03
8.18594039e+02
2.10888258e+03
1.06930081e+03
2.17997416e+03
1.01666560e+03
1.47707417e+03
9.12486735e+02
0.00000000e+00
8.30854071e+02
9.84747368e+02
1.01368953e+03
1.19799451e+03
1.09989931e+03
1.37071597e+03
1.06776973e+03
7.84974728e+02
1.29350841e+03
6.02882745e+02
8.94365774e+02
4.88161709e+02
1.93171281e+03
1.71625223e+03
8.87755077e+02
6.51892208e+02
8.91095485e+02
1.31201614e+03
7.16010082e+02
7.06969903e+02
0.00000000e+00
0.00000000e+00
1.09682903e+03
8.51713556e+02
1.15480319e+03
1.26154489e+03
1.15060235e+03
1.06682939e+03
6.95442830e+02
0.00000000e+00
0.00000000e+00
0.00000000e+00
0.00000000e+00
6.91933167e+02
0.00000000e+00
5.45170042e+02
8.64818942e+02
9.00216381e+02
5.84965209e+02
7.32025595e+02
1.16147835e+03
6.57550293e+02
6.09431754e+02
1.57919227e+03
8.99479344e+02
1.24552455e+03
9.88771806e+02
1.17927346e+03
1.05012751e+03
7.95957959e+02
8.37449936e+02
5.04576330e+02
1.45847744e+03
7.86779959e+02
1.82085104e+03
4.21157572e+02
3.93194837e+02
4.41191574e+02
5.08478297e+02
8.54617744e+02
9.44615993e+02
1.90869896e+03
0.00000000e+00
0.00000000e+00
4.92357025e+02
0.00000000e+00
8.77784792e+02
1.01296394e+03
1.03183434e+03
0.00000000e+00
5.53062615e+02
0.00000000e+00
0.00000000e+00
0.00000000e+00
0.00000000e+00
0.00000000e+00
0.00000000e+00
0.00000000e+00
0.00000000e+00
0.00000000e+00
0.00000000e+00
5.02134008e+02
0.00000000e+00
0.00000000e+00
0.00000000e+00
0.00000000e+00
1.40485255e+03
7.28394086e+02
8.65404239e+02
0.00000000e+00
0.00000000e+00
0.00000000e+00
0.00000000e+00
8.48879081e+02
9.74094248e+02
1.46033164e+03
7.27762624e+02
8.29972812e+02
9.09727051e+02
6.98469702e+02
8.72417836e+02
1.27932353e+03
8.13726897e+02
0.00000000e+00
1.34602524e+03
1.20105356e+03
1.61708117e+03
1.30436890e+03
1.14321257e+03
8.84423670e+02
9.09762802e+02
1.08683430e+03
1.01269400e+03
1.85824110e+03
0.00000000e+00
9.22466627e+02
1.26633846e+03
6.02578560e+02
0.00000000e+00
7.59654982e+02
1.42545727e+03
2.34717647e+03
1.62871771e+03
1.32270379e+03
1.00899726e+03
1.02807384e+03
1.68429121e+03
1.27288976e+03
1.61098738e+03
1.94191236e+03
1.80416711e+03
1.88929918e+03
1.95903661e+03
8.75098215e+02
1.58058329e+03
9.25188808e+02
9.58726763e+02
1.14672889e+03
1.14893720e+03
1.33961756e+03
1.34282375e+03
2.35701902e+03
7.39956138e+02
9.64790429e+02
1.12468005e+03
1.27720140e+03
0.00000000e+00
0.00000000e+00
1.07689443e+03
1.92732706e+03
1.11490134e+03
1.99184249e+03
7.76036280e+02
1.36648309e+03
1.46969485e+03
1.15967221e+03
6.42010655e+02
7.09199232e+02
1.57424062e+03
1.63891112e+03
7.54604734e+02
1.03000756e+03
9.80536946e+02
9.96793393e+02
1.58981436e+03
9.17998582e+02
1.10269530e+03
8.44541097e+02
1.38331677e+03
1.64708545e+03
1.36301298e+03
1.38684326e+03
1.36574008e+03
1.96650344e+03
1.02392620e+03
1.23294575e+03
4.43818120e+02
1.75520301e+03
9.41297819e+02
7.96574627e+02
7.73672233e+02
1.33581625e+03
9.73703807e+02
1.21680978e+03
1.24075711e+03
8.70700145e+02
1.98677858e+03
1.43473645e+03
0.00000000e+00
1.64061150e+03
1.22803383e+03
1.64777787e+03
1.19791724e+03
1.89792017e+03
1.18592901e+03
1.68124884e+03
1.66583752e+03
8.85275252e+02
1.10829208e+03
7.64540476e+02
1.95146282e+03
1.12674429e+03
0.00000000e+00
1.58341324e+03
1.04721925e+03
1.20096573e+03
1.11476372e+03
1.06995524e+03
1.08812852e+03
0.00000000e+00
0.00000000e+00
1.31090026e+03
1.75200497e+03
1.04673653e+03
1.46746843e+03
2.03470777e+03
1.20071876e+03
1.36346841e+03
1.13057355e+03
1.97677291e+03
1.68757922e+03
1.02548695e+03
8.72792734e+02
8.78538186e+02
1.88377065e+03
1.99018623e+03
1.40775019e+03
2.25767240e+03
1.16614473e+03
1.13102066e+03
0.00000000e+00
1.78292156e+03
1.51736783e+03
1.89396225e+03
1.71235275e+03
1.50307767e+03
1.43232865e+03
8.73112346e+02
1.06075845e+03
5.63122403e+02
1.60023876e+03
2.03219792e+03
1.47422388e+03
1.50196856e+03
2.08963814e+03
2.29805691e+03
1.07286315e+03
2.07953724e+03
2.37457390e+03
1.96598359e+03
1.02567164e+03
0.00000000e+00
1.60671859e+03
0.00000000e+00
1.18236698e+03
1.04641876e+03
1.69188892e+03
1.62286177e+03
1.96161225e+03
8.63704963e+02
1.28443608e+03
1.63614178e+03
2.01197707e+03
1.24177833e+03
9.21299195e+02
1.26774574e+03
2.23670629e+03
9.30973023e+02
2.29233265e+03
1.57445490e+03
1.10021085e+03
0.00000000e+00
1.10305778e+03
1.52650902e+03
1.45403150e+03
1.58947484e+03
7.49610445e+02
1.97154776e+03
1.92161550e+03
1.83296509e+03
1.01740804e+03
5.77708861e+02
1.38547700e+03
5.29653876e+02
1.93096866e+03
1.24229024e+03
8.90066827e+02
1.63420028e+03
9.80844681e+02
1.27768389e+03
1.10388132e+03
9.48163142e+02
0.00000000e+00
1.16724806e+03
1.27997602e+03
0.00000000e+00
1.32775770e+03
7.73276984e+02
1.55645429e+03
1.79900400e+03
1.24353311e+03
1.14906728e+03
1.85751142e+03
1.89827720e+03
1.33847797e+03
2.03045672e+03
8.88226887e+02
2.28042316e+03
1.74118514e+03
1.78315110e+03
1.36641173e+03
1.05824217e+03
7.83078075e+02
1.00482612e+03
1.21898357e+03
0.00000000e+00
0.00000000e+00
1.84124812e+03
9.90372849e+02
1.45169698e+03
1.03199701e+03
1.18417161e+03
5.06739869e+02
1.93708651e+03
1.66122294e+03
1.35914195e+03
1.30000167e+03
8.84513964e+02
1.95578949e+03
1.20372649e+03
1.29609086e+03
1.14836899e+03
1.33166504e+03
2.26681210e+03
1.14099885e+03
1.04464815e+03
0.00000000e+00
0.00000000e+00
1.44869005e+03
1.02700007e+03
1.88130855e+03
1.29395748e+03
1.89491145e+03
1.84276363e+03
1.92588120e+03
1.86765769e+03
1.22134226e+03
1.81651020e+03
7.17891718e+02
2.11784170e+03
1.11526725e+03
2.34119898e+03
2.17776281e+03
1.16046237e+03
2.30544773e+03
1.03561498e+03
0.00000000e+00
1.00069724e+03
9.99142352e+02
1.84113009e+03
1.20825641e+03
1.69080783e+03
1.19226124e+03
1.25143789e+03
1.11128026e+03
1.23552050e+03
1.58639336e+03
7.47835766e+02
2.01178420e+03
2.12652154e+03
2.16654279e+03
7.68449152e+02
1.01951442e+03
2.25845859e+03
1.46579398e+03
1.08216842e+03
8.35459917e+02
0.00000000e+00
0.00000000e+00
1.64183357e+03
1.66856811e+03
1.38754650e+03
1.80254446e+03
1.59129269e+03
1.18221833e+03
1.05216814e+03
1.81803712e+03
1.52495660e+03
1.21453433e+03
1.91184075e+03
1.85642172e+03
7.43601366e+02
2.19497966e+03
2.16087505e+03
1.03745671e+03
1.56849907e+03
1.98701161e+03
8.34593845e+02
1.03336472e+03
1.02517179e+03
1.30477828e+03
1.80735858e+03
1.42340373e+03
1.79476051e+03
1.45583123e+03
1.93794737e+03
1.23316085e+03
1.92314061e+03
1.48277318e+03
7.86064400e+02
1.90604814e+03
2.00006739e+03
1.19949292e+03
1.72176559e+03
2.14057505e+03
2.08395445e+03
1.59758962e+03
1.35081995e+03
8.76161254e+02
0.00000000e+00
0.00000000e+00
1.67814650e+03
1.11913043e+03
1.84376225e+03
1.41878853e+03
1.58977704e+03
1.14412212e+03
9.98101910e+02
1.63509698e+03
2.03155572e+03
1.76467063e+03
1.28972314e+03
1.11935749e+03
9.07661169e+02
2.02003712e+03
7.30865162e+02
2.13064680e+03
2.05953134e+03
2.12365419e+03
1.19162327e+03
1.06157840e+03
6.92352185e+02
8.81712011e+02
1.08936296e+03
1.16716598e+03
1.48827526e+03
1.81245289e+03
1.73398901e+03
1.58196385e+03
1.07478342e+03
6.53578834e+02
6.56868051e+02
4.29289562e+02
5.27306580e+02
8.74285435e+02
1.29544845e+03
2.09603446e+03
1.97799569e+03
1.59948674e+03
1.48168750e+03
9.86348369e+02
0.00000000e+00
0.00000000e+00
1.05565570e+03
1.62485200e+03
1.43758994e+03
1.25423386e+03
1.68142654e+03
1.24467576e+03
1.85403750e+03
1.82180234e+03
1.52383912e+03
1.44912293e+03
1.99464865e+03
1.98157462e+03
1.27067388e+03
1.40236266e+03
1.93481474e+03
2.08984462e+03
2.10797281e+03
1.99928201e+03
1.02774264e+03
0.00000000e+00
0.00000000e+00
1.12379334e+03
9.38608328e+02
1.44133965e+03
1.77357552e+03
1.50088697e+03
1.19328396e+03
0.00000000e+00
0.00000000e+00
0.00000000e+00
0.00000000e+00
0.00000000e+00
0.00000000e+00
0.00000000e+00
8.17243851e+02
7.05733191e+02
1.26849821e+03
6.69877264e+02
1.70640977e+03
8.72843392e+02
0.00000000e+00
0.00000000e+00
0.00000000e+00
6.56844827e+02
9.19488790e+02
1.00668884e+03
0.00000000e+00
0.00000000e+00
0.00000000e+00
0.00000000e+00
0.00000000e+00
0.00000000e+00
0.00000000e+00
0.00000000e+00
0.00000000e+00
0.00000000e+00
0.00000000e+00
0.00000000e+00
5.45722555e+02
0.00000000e+00
7.02333237e+02
0.00000000e+00
0.00000000e+00
9.95754633e+02
0.00000000e+00
2.01613559e+03
1.18950289e+03
1.24077986e+03