# vtk DataFile Version 3.0
MPS 3D Simulation Step 8500
ASCII
DATASET UNSTRUCTURED_GRID
POINTS 20213 double
-1.16199574e-03 3.24290641e-04 -7.77339916e-04
-1.07601545e-03 1.68583401e-04 -7.83194448e-04
-9.42652259e-04 3.12008689e-04 -1.01395260e-03
-8.89761536e-04 3.38009925e-04 -1.07389418e-03
-8.50142280e-04 1.90325890e-04 -1.02806179e-03
-8.27775538e-04 3.43186241e-04 -1.12121682e-03
-6.11644258e-04 2.37770529e-04 -1.22963936e-03
-4.80823133e-04 2.56310248e-04 -1.29684041e-03
-4.45531059e-04 3.91852561e-04 -1.23000372e-03
-3.89559511e-04 8.62746251e-04 -1.12665545e-03
-2.29660569e-04 9.27390700e-04 -1.12374131e-03
-3.74494718e-04 9.25989473e-04 -1.21151027e-03
-9.42141796e-05 6.88564011e-04 -1.10297886e-03
-6.02930335e-05 2.01894934e-04 -1.35103783e-03
1.11484051e-05 2.44630793e-04 -1.37401187e-03
5.01412225e-04 1.30537968e-04 -1.21658399e-03
1.80253257e-04 7.61148319e-04 -7.18249533e-04
4.76739152e-04 2.32212102e-04 -1.29079943e-03
5.40311666e-04 7.73141869e-04 -1.07842050e-03
7.39499324e-04 8.34091161e-04 -9.05046883e-04
1.08983558e-03 6.39091214e-04 -7.50037003e-04
-1.13206677e-03 2.47339010e-04 -7.78707741e-04
-1.07423233e-03 2.32209335e-04 -8.35770521e-04
-1.00858266e-03 3.34510172e-04 -9.58980814e-04
-9.17037263e-04 4.12137345e-04 -1.07347954e-03
-8.76106425e-04 5.09554511e-04 -1.12379922e-03
-9.93485129e-04 4.71096941e-04 -1.01373096e-03
-7.78946022e-04 3.96048880e-04 -1.17357346e-03
-5.85372307e-04 3.71508073e-04 -1.28180598e-03
-3.97306330e-04 2.29018720e-04 -1.31372464e-03
-4.19462904e-04 1.22980964e-04 -1.24307304e-03
-1.23349534e-04 2.64175432e-04 -1.38014343e-03
9.53691502e-05 2.17850435e-04 -1.36197382e-03
1.86074001e-04 4.12318794e-04 -1.40758163e-03
2.59884538e-04 3.51835353e-04 -1.38408889e-03
2.54220867e-04 2.72622802e-04 -1.36173155e-03
4.45331430e-04 1.64706022e-04 -1.26705552e-03
4.14439973e-04 3.18378766e-04 -1.33739770e-03
4.14270829e-04 7.40762961e-04 -1.24318973e-03
3.99818364e-04 2.41587840e-04 -1.31735159e-03
5.41593367e-04 2.00562711e-04 -1.24764621e-03
8.02360800e-04 1.31489460e-04 -1.05196559e-03
-1.10646040e-03 3.11402039e-04 -8.40978756e-04
-1.07499399e-03 3.71791058e-04 -9.01813954e-04
-1.08499836e-03 5.78323516e-04 -9.33818406e-04
-8.10155012e-04 2.61352452e-04 -1.09855253e-03
-9.71666043e-04 3.90130038e-04 -1.01688667e-03
-8.54963248e-04 4.25598678e-04 -1.12498059e-03
-5.62575463e-04 2.85474808e-04 -1.27241660e-03
-6.89484036e-04 2.67397702e-04 -1.19134269e-03
-4.42156089e-04 3.81687801e-04 -1.34334197e-03
-3.25622936e-04 2.46202366e-04 -1.34012059e-03
-1.36052391e-04 4.34584363e-04 -1.41721469e-03
-5.14775938e-05 2.91820126e-04 -1.39259881e-03
1.07086306e-04 4.64707487e-04 -1.41928276e-03
3.37476790e-04 3.81850212e-04 -1.37292572e-03
2.48152500e-04 1.90223169e-04 -1.33321510e-03
4.08405365e-04 4.81724017e-04 -1.36469555e-03
4.92660279e-04 3.86546166e-04 -1.32826525e-03
4.14550822e-04 3.98862401e-04 -1.35351628e-03
6.37336773e-04 2.78267257e-04 -1.23796934e-03
7.38581343e-04 1.74995552e-04 -1.12329239e-03
7.04669601e-04 1.14651466e-04 -1.06162288e-03
-1.18182616e-03 4.06919887e-04 -7.71907055e-04
-1.10098369e-03 4.55753841e-04 -8.92157201e-04
-1.05820810e-03 4.94944309e-04 -9.49823525e-04
-9.35299353e-04 4.89711651e-04 -1.07339997e-03
-8.03590468e-04 4.79529320e-04 -1.16953353e-03
-7.08370451e-04 3.55024480e-04 -1.20780138e-03
-6.39625722e-04 3.18227162e-04 -1.24222951e-03
-3.48038141e-04 3.31510754e-04 -1.36207588e-03
-2.78469763e-04 3.71755518e-04 -1.38946056e-03
-3.51726125e-04 1.64363253e-04 -1.28780195e-03
-6.17048983e-05 4.71980170e-04 -1.42267180e-03
-1.47621322e-04 1.98645733e-04 -1.34830728e-03
-4.81625179e-05 3.90277715e-04 -1.41389851e-03
1.63330721e-05 3.36441194e-04 -1.40357632e-03
2.63068517e-04 4.37751282e-04 -1.39874092e-03
3.33211882e-04 3.00749655e-04 -1.35481966e-03
4.20259193e-04 5.62702090e-04 -1.36327485e-03
7.01851414e-04 3.31056783e-04 -1.22115913e-03
7.01660388e-04 2.43123374e-04 -1.18390757e-03
7.79721406e-04 2.45801464e-04 -1.14216550e-03
8.68710450e-04 2.64423369e-04 -1.09608083e-03
-1.20079986e-03 4.89895033e-04 -7.52010429e-04
-1.03252227e-03 6.23458357e-04 -9.94120035e-04
-1.03522574e-03 4.13678286e-04 -9.58973478e-04
-8.24826419e-04 5.64074751e-04 -1.16854131e-03
-6.73621848e-04 4.99978508e-04 -1.25381714e-03
-7.28047454e-04 4.51100925e-04 -1.21482725e-03
-3.69091497e-04 4.14715962e-04 -1.37147150e-03
-2.94858862e-04 4.50499089e-04 -1.39328273e-03
-2.05622530e-04 3.94985560e-04 -1.40586595e-03
-1.48342510e-04 5.16325012e-04 -1.41666978e-03
-6.94960139e-05 5.58367020e-04 -1.42430916e-03
-1.89696040e-04 3.15131513e-04 -1.39143369e-03
1.42954958e-05 5.03028657e-04 -1.42500584e-03
2.45672221e-04 5.98210985e-04 -1.41092486e-03
3.01273951e-05 4.21360159e-04 -1.41842420e-03
3.34379797e-04 4.71174628e-04 -1.38449662e-03
3.35644982e-04 5.61024587e-04 -1.38712594e-03
5.62515598e-04 2.76911644e-04 -1.27040771e-03
7.66221680e-04 3.13519289e-04 -1.17757046e-03
8.37604301e-04 3.20311111e-04 -1.13619760e-03
8.30817294e-04 3.98363645e-04 -1.15863682e-03
-1.18807062e-03 6.37811161e-04 -7.90455067e-04
-1.12479465e-03 5.37553535e-04 -8.77773036e-04
-9.71274382e-04 6.43548994e-04 -1.05155628e-03
-1.02028978e-03 5.47502153e-04 -1.00056749e-03
-7.54329954e-04 5.35670491e-04 -1.21276487e-03
-5.95418118e-04 4.59953290e-04 -1.29025362e-03
-5.19513059e-04 4.17515464e-04 -1.31916404e-03
-4.49876184e-04 4.63636118e-04 -1.35046566e-03
-2.23225489e-04 4.82425775e-04 -1.40833696e-03
-3.04896730e-04 5.39290877e-04 -1.39485476e-03
-2.29298482e-04 5.67573587e-04 -1.40919245e-03
-1.18302335e-04 3.48913733e-04 -1.40547564e-03
1.84578248e-04 4.94744772e-04 -1.41667988e-03
2.62268267e-04 5.20034038e-04 -1.40596248e-03
8.76145310e-05 2.96244218e-04 -1.38801086e-03
2.15720928e-04 7.65362260e-04 -1.40728708e-03
3.11146378e-04 6.44487196e-04 -1.39609422e-03
4.85544495e-04 4.73748827e-04 -1.33907759e-03
6.36123728e-04 3.55271724e-04 -1.26411698e-03
7.61918487e-04 3.97647783e-04 -1.20073665e-03
9.25592365e-04 4.61704828e-04 -1.09555241e-03
-1.17274264e-03 5.58753619e-04 -8.11031085e-04
-1.15381955e-03 4.74971447e-04 -8.25398500e-04
-1.02642912e-03 7.02054068e-04 -9.93294384e-04
-9.01932476e-04 5.89113327e-04 -1.11035333e-03
-7.72540667e-04 6.21000722e-04 -1.20808249e-03
-6.08722460e-04 5.40928164e-04 -1.29092224e-03
-5.27380537e-04 5.03173768e-04 -1.32477414e-03
-3.75596153e-04 4.98649489e-04 -1.37732678e-03
-4.59489628e-04 5.47486298e-04 -1.35179801e-03
-3.88762311e-04 5.80429997e-04 -1.37542505e-03
-1.55208074e-04 6.01463915e-04 -1.41899582e-03
7.86250347e-06 5.93129399e-04 -1.42891315e-03
8.58806520e-05 5.45680889e-04 -1.42721057e-03
1.65068339e-04 5.70981308e-04 -1.42228309e-03
1.70434689e-04 6.52683651e-04 -1.42117574e-03
5.01199023e-04 5.54660830e-04 -1.33904711e-03
4.69538964e-04 6.40796823e-04 -1.34670581e-03
5.65335299e-04 3.61560150e-04 -1.29655040e-03
5.57642667e-04 4.49237331e-04 -1.31281661e-03
8.55091749e-04 4.75664744e-04 -1.14865388e-03
8.26477946e-04 5.55166871e-04 -1.17321484e-03
-1.19458728e-03 7.27605881e-04 -7.66503862e-04
-1.13601641e-03 6.24441547e-04 -8.69412746e-04
-1.08448299e-03 6.60146321e-04 -9.35306982e-04
-9.61300742e-04 5.63486723e-04 -1.05987150e-03
-6.92545397e-04 5.80977923e-04 -1.25243498e-03
-5.44307561e-04 5.86622350e-04 -1.32355925e-03
-5.68396852e-04 6.66979001e-04 -1.31289295e-03
-4.73588224e-04 6.29847175e-04 -1.35031276e-03
-3.96880039e-04 6.63495453e-04 -1.36980819e-03
-3.14921165e-04 6.22810321e-04 -1.39181200e-03
-2.37551258e-04 6.52541071e-04 -1.40544489e-03
-8.25959648e-05 6.43228402e-04 -1.42532167e-03
-6.21192907e-06 6.72027015e-04 -1.42646175e-03
8.87264421e-05 6.32366072e-04 -1.42748554e-03
1.45787925e-04 7.31484272e-04 -1.41807576e-03
3.88926121e-04 6.41374926e-04 -1.37202634e-03
3.30675755e-04 7.21072141e-04 -1.38297094e-03
5.48603660e-04 6.24242701e-04 -1.32246299e-03
6.28035575e-04 4.40847395e-04 -1.28153972e-03
7.81923311e-04 4.80250585e-04 -1.19805411e-03
7.92361798e-04 6.44591517e-04 -1.19576162e-03
-1.15785375e-03 7.00794029e-04 -8.36756883e-04
-1.11390707e-03 7.15880756e-04 -8.97300446e-04
-1.05812443e-03 7.57883398e-04 -9.47940210e-04
-7.93531455e-04 6.96852661e-04 -1.19176847e-03
-7.14266574e-04 6.62869392e-04 -1.24385111e-03
-6.31735393e-04 6.19084125e-04 -1.28636647e-03
-5.80744845e-04 7.47555970e-04 -1.29794191e-03
-4.99809064e-04 7.03778701e-04 -1.33535373e-03
-4.29627545e-04 7.39616403e-04 -1.35406524e-03
-3.23303304e-04 7.04915879e-04 -1.38493683e-03
-2.44026193e-04 7.35714132e-04 -1.39957151e-03
-1.62671408e-04 6.86854998e-04 -1.41555912e-03
-8.56304163e-05 7.27693890e-04 -1.41853387e-03
-8.71255247e-06 7.57803679e-04 -1.41707762e-03
6.51548522e-05 7.11342254e-04 -1.42522118e-03
2.86197252e-04 7.91140815e-04 -1.38623612e-03
3.15138134e-04 8.64481077e-04 -1.35916064e-03
4.16193075e-04 7.20026616e-04 -1.35662602e-03
5.75537637e-04 5.32629972e-04 -1.31197572e-03
6.96497453e-04 4.20814750e-04 -1.24408505e-03
7.60063464e-04 5.70248553e-04 -1.22074217e-03
-1.15346297e-03 7.85352787e-04 -8.20638199e-04
-1.04268880e-03 8.37365363e-04 -9.36920284e-04
-9.65545492e-04 7.26555831e-04 -1.04735060e-03
-8.49287539e-04 6.40035021e-04 -1.15590207e-03
-7.94432664e-04 7.79844130e-04 -1.17760794e-03
-6.46056162e-04 7.00944767e-04 -1.27687968e-03
-6.63270447e-04 7.79421900e-04 -1.25531763e-03
-5.08915273e-04 7.86864698e-04 -1.31822592e-03
-4.37236618e-04 8.24013848e-04 -1.33459029e-03
-3.58360265e-04 7.76435220e-04 -1.36711160e-03
-2.82349191e-04 8.02750928e-04 -1.38194980e-03
-1.71294264e-04 7.70090895e-04 -1.40610361e-03
-1.01969059e-04 8.09118023e-04 -1.40388835e-03
-2.72571728e-05 8.36036737e-04 -1.40217332e-03
7.32418077e-05 7.93037396e-04 -1.41188523e-03
2.26692923e-04 8.52271203e-04 -1.38421069e-03
4.00650749e-04 8.72084462e-04 -1.32904930e-03
3.71030201e-04 7.96842234e-04 -1.35838774e-03
6.20325918e-04 6.12552428e-04 -1.29501772e-03
7.15105447e-04 5.02517037e-04 -1.24375118e-03
7.56844269e-04 7.37033166e-04 -1.20457617e-03
-1.10351274e-03 7.96010212e-04 -8.85068603e-04
-1.03696012e-03 9.10422911e-04 -9.01725591e-04
[...]
POINT_DATA 20213
SCALARS pressure double 1
LOOKUP_TABLE default
0.00000000e+00
0.00000000e+00
0.00000000e+00
1.18558314e+03
0.00000000e+00
1.20784853e+03
0.00000000e+00
8.36491897e+02
1.11904915e+03
8.93025559e+02
7.62373139e+02
5.48576570e+02
1.38311347e+03
0.00000000e+00
1.02064057e+03
5.43098775e+02
2.31462962e+03
0.00000000e+00
1.61553009e+03
1.39078964e+03
7.21144460e+02
0.00000000e+00
6.75955070e+02
1.00876606e+03
1.13019604e+03
1.04664519e+03
9.21942474e+02
0.00000000e+00
0.00000000e+00
9.31482188e+02
6.27825442e+02
1.00228462e+03
9.43134124e+02
0.00000000e+00
9.60244031e+02
9.69345256e+02
0.00000000e+00
0.00000000e+00
1.74971678e+03
0.00000000e+00
0.00000000e+00
8.76317972e+02
7.41312175e+02
0.00000000e+00
0.00000000e+00
9.72647031e+02
1.05573133e+03
1.14646580e+03
0.00000000e+00
0.00000000e+00
1.05746475e+03
0.00000000e+00
1.15955942e+03
1.09187386e+03
1.08302169e+03
0.00000000e+00
6.46821344e+02
0.00000000e+00
9.22074436e+02
8.75446989e+02
0.00000000e+00
0.00000000e+00
7.76549617e+02
0.00000000e+00
0.00000000e+00
0.00000000e+00
9.93813847e+02
1.06793115e+03
0.00000000e+00
0.00000000e+00
1.13345101e+03
1.16842757e+03
0.00000000e+00
1.10083453e+03
9.30172875e+02
0.00000000e+00
1.17397150e+03
0.00000000e+00
0.00000000e+00
1.46299387e+03
8.73721050e+02
0.00000000e+00
9.31017439e+02
0.00000000e+00
0.00000000e+00
0.00000000e+00
9.33673016e+02
9.73654912e+02
9.77459416e+02
0.00000000e+00
1.00245152e+03
1.02622538e+03
1.15199547e+03
1.00109171e+03
0.00000000e+00
0.00000000e+00
0.00000000e+00
1.47460917e+03
1.14983817e+03
0.00000000e+00
1.42918397e+03
0.00000000e+00
9.72355960e+02
0.00000000e+00
8.47958684e+02
0.00000000e+00
0.00000000e+00
9.49914258e+02
0.00000000e+00
1.03389290e+03
0.00000000e+00
0.00000000e+00
8.54488353e+02
1.04822091e+03
0.00000000e+00
0.00000000e+00
1.15392689e+03
1.19340325e+03
1.33311211e+03
1.11978951e+03
1.72564847e+03
1.75731419e+03
1.19927033e+03
0.00000000e+00
8.72999657e+02
0.00000000e+00
0.00000000e+00
0.00000000e+00
1.19860270e+03
9.34526496e+02
0.00000000e+00
7.37252292e+02
0.00000000e+00
0.00000000e+00
0.00000000e+00
0.00000000e+00
0.00000000e+00
0.00000000e+00
0.00000000e+00
1.19586741e+03
0.00000000e+00
1.49491416e+03
1.61829973e+03
0.00000000e+00
1.06263072e+03
1.02887905e+03
1.17270030e+03
0.00000000e+00
0.00000000e+00
9.43871393e+02
0.00000000e+00
7.42488213e+02
0.00000000e+00
0.00000000e+00
0.00000000e+00
0.00000000e+00
0.00000000e+00
0.00000000e+00
0.00000000e+00
9.78115746e+02
0.00000000e+00
1.49383745e+03
1.75607096e+03
1.82102630e+03
1.66146484e+03
0.00000000e+00
0.00000000e+00
1.40387601e+03
0.00000000e+00
8.20092991e+02
1.21873896e+03
0.00000000e+00
0.00000000e+00
0.00000000e+00
0.00000000e+00
0.00000000e+00
0.00000000e+00
0.00000000e+00
0.00000000e+00
0.00000000e+00
0.00000000e+00
1.24500284e+03
1.25450430e+03
1.84073395e+03
1.84581198e+03
1.74847035e+03
1.41843137e+03
0.00000000e+00
1.29856591e+03
0.00000000e+00
0.00000000e+00
1.12813497e+03
0.00000000e+00
0.00000000e+00
0.00000000e+00
0.00000000e+00
7.21958880e+02
8.21519966e+02
7.55654548e+02
0.00000000e+00
0.00000000e+00
9.93770098e+02
1.16677645e+03
1.57554313e+03
1.81854127e+03
1.79160431e+03
1.76887430e+03
1.58842097e+03
0.00000000e+00
1.44715695e+03
9.76548276e+02
1.20536442e+03
0.00000000e+00
0.00000000e+00
0.00000000e+00
0.00000000e+00
0.00000000e+00
8.25957882e+02
6.50640003e+02
6.89420654e+02
1.36873433e+02
6.35856204e+02
7.09609249e+02
0.00000000e+00
1.38422923e+03
1.76441622e+03
0.00000000e+00
1.74712816e+03
1.45992772e+03
1.71359822e+03
1.53216063e+03
0.00000000e+00
1.10425047e+03
0.00000000e+00
8.04769423e+02
0.00000000e+00
0.00000000e+00
0.00000000e+00
7.89235675e+02
6.95468713e+02
0.00000000e+00
0.00000000e+00
9.04706211e+02
0.00000000e+00
1.28193904e+03
1.54418209e+03
1.83007415e+03
1.64183555e+03
1.77296443e+03
1.60640972e+03
1.61842470e+03
1.26034777e+03
1.08539290e+03
1.21682371e+03
1.02650456e+03
9.00701123e+02
8.27453497e+02
7.85724303e+02
7.33643901e+02
0.00000000e+00
0.00000000e+00
0.00000000e+00
0.00000000e+00
0.00000000e+00
0.00000000e+00
1.41747271e+03
1.58201915e+03
0.00000000e+00
1.71688643e+03
1.47590329e+03
1.30742809e+03
1.37050498e+03
0.00000000e+00
9.46889096e+02
1.19853943e+03
1.09948742e+03
0.00000000e+00
8.01516659e+02
7.14834006e+02
0.00000000e+00
0.00000000e+00
0.00000000e+00
0.00000000e+00
0.00000000e+00
0.00000000e+00
1.16801823e+03
1.29582247e+03
1.36147093e+03
1.53886348e+03
1.18404582e+03
1.40168631e+03
0.00000000e+00
0.00000000e+00
1.09591924e+03
9.50585707e+02
0.00000000e+00
1.01068625e+03
0.00000000e+00
0.00000000e+00
0.00000000e+00
0.00000000e+00
0.00000000e+00
0.00000000e+00
0.00000000e+00
0.00000000e+00
0.00000000e+00
0.00000000e+00
8.38693089e+02
0.00000000e+00
1.20963148e+03
1.25308677e+03
8.57726138e+02
1.13159991e+03
0.00000000e+00
8.08581092e+02
0.00000000e+00
0.00000000e+00
8.68579278e+02
0.00000000e+00
0.00000000e+00
0.00000000e+00
4.62006460e+02
0.00000000e+00
0.00000000e+00
0.00000000e+00
0.00000000e+00
0.00000000e+00
0.00000000e+00
0.00000000e+00
0.00000000e+00
8.90644561e+02
8.76803554e+02
0.00000000e+00
0.00000000e+00
5.15771100e+02
0.00000000e+00
0.00000000e+00
7.83499096e+02
9.57239167e+02
1.07287345e+03
7.38199600e+02
0.00000000e+00
0.00000000e+00
0.00000000e+00
0.00000000e+00
0.00000000e+00
0.00000000e+00
0.00000000e+00
0.00000000e+00
0.00000000e+00
0.00000000e+00
0.00000000e+00
0.00000000e+00
0.00000000e+00
0.00000000e+00
0.00000000e+00
0.00000000e+00
0.00000000e+00
1.07601245e+03
1.00172631e+03
1.14198950e+03
1.12067873e+03
0.00000000e+00
0.00000000e+00
0.00000000e+00
0.00000000e+00
0.00000000e+00
0.00000000e+00
0.00000000e+00
0.00000000e+00
0.00000000e+00
0.00000000e+00
0.00000000e+00
0.00000000e+00
0.00000000e+00
0.00000000e+00
0.00000000e+00
0.00000000e+00
0.00000000e+00
0.00000000e+00
0.00000000e+00
9.99472885e+02
1.20389294e+03
0.00000000e+00
0.00000000e+00
0.00000000e+00
0.00000000e+00
0.00000000e+00
0.00000000e+00
0.00000000e+00
0.00000000e+00
0.00000000e+00
0.00000000e+00
0.00000000e+00
0.00000000e+00
0.00000000e+00
0.00000000e+00
6.23346773e+02
5.64746690e+02
8.36902552e+02
1.10898780e+03
1.14073627e+03
1.21020644e+03
0.00000000e+00
9.93874326e+02
0.00000000e+00
0.00000000e+00
0.00000000e+00
0.00000000e+00
0.00000000e+00
0.00000000e+00
0.00000000e+00
0.00000000e+00
0.00000000e+00
0.00000000e+00
0.00000000e+00
0.00000000e+00
0.00000000e+00
0.00000000e+00
0.00000000e+00
8.20574508e+02
1.14098193e+03
1.13698805e+03
1.08254763e+03
1.05833798e+03
6.33731995e+02
0.00000000e+00
0.00000000e+00
0.00000000e+00
0.00000000e+00
0.00000000e+00
0.00000000e+00
0.00000000e+00
0.00000000e+00
0.00000000e+00
0.00000000e+00
0.00000000e+00
0.00000000e+00
0.00000000e+00
0.00000000e+00
0.00000000e+00
0.00000000e+00
5.30595106e+02
1.04276454e+03
7.59997361e+02
0.00000000e+00
0.00000000e+00
1.61132790e+03
0.00000000e+00
1.13654491e+03
1.16186932e+03
1.68567917e+03
2.13802227e+03
1.42462605e+03
1.28527848e+03
4.85963651e+02
1.80632320e+03
7.22371744e+02
1.04116662e+03
1.13930887e+03
9.18739520e+02
9.89530464e+02
0.00000000e+00
1.19656963e+03
6.96917518e+02
2.16653692e+03
1.03435076e+03
1.33573646e+03
8.22789153e+02
1.49151422e+03
8.16833523e+02
1.96237599e+03
2.06265721e+03
2.39060739e+03
1.39757971e+03
2.44252744e+03
2.26361640e+03
1.85255646e+03
1.37512878e+03
1.30886443e+03
1.70530574e+03
1.34383694e+03
0.00000000e+00
0.00000000e+00
1.28907213e+03
1.39489871e+03
1.74043474e+03
1.19887568e+03
9.68306500e+02
2.15818232e+03
0.00000000e+00
7.64860685e+02
8.35342693e+02
1.07849302e+03
0.00000000e+00
8.08465341e+02
0.00000000e+00
1.86194170e+03
4.43368411e+02
1.70471971e+03
8.89339242e+02
1.46536785e+03
1.24411606e+03
9.57112218e+02
4.29780954e+02
5.56950052e+02
2.47160535e+03
1.28079906e+03
1.18642766e+03
1.88385708e+03
9.92614206e+02
1.46813130e+03
1.01496982e+03
1.06863732e+03
1.18201062e+03
1.71459554e+03
2.30669310e+03
1.18549485e+03
7.22877528e+02
4.69799055e+02
1.77994851e+03
1.55787621e+03
1.14081390e+03
2.05377407e+03
0.00000000e+00
0.00000000e+00
1.10147742e+03
1.95258500e+03
1.91348039e+03
2.52473985e+03
2.25633909e+03
1.94035740e+03
9.39330232e+01
9.51020385e+01
2.13251158e+03
2.27431199e+03
2.09560104e+03
1.14809573e+03
9.47765708e+02
0.00000000e+00
2.34298394e+03
1.66528166e+03
9.40564526e+02
1.44298957e+03
8.70212020e+02
7.69608233e+02
0.00000000e+00
2.08245856e+03
9.10589218e+02
1.26166838e+03
1.84282653e+03
9.57527351e+02
2.45511973e+03
1.26592803e+03
8.11919238e+01
2.52515964e+02
2.41743097e+03
3.67265103e+02
1.96567909e+03
1.79764309e+03
1.34122693e+03
1.64492836e+03
1.51456097e+03
1.01833984e+03
7.70916193e+02
1.75728685e+03
1.03757306e+03
0.00000000e+00
1.42008056e+03
1.49053815e+03
1.82687044e+03
1.76863268e+03
1.14841261e+03
2.08669799e+03
1.41125490e+03
1.66278764e+02
1.80396014e+03
2.07766821e+02
1.92316098e+03
2.13973068e+03
1.25568229e+03
1.32501723e+03
1.59456562e+03
1.30612944e+03
7.49934668e+02
6.18072048e+02
8.40587508e+02
1.11561776e+03
0.00000000e+00
1.06409019e+03
1.26838952e+03
1.37713886e+03
1.41488637e+03
1.84254398e+03
1.73859314e+03
2.37770494e+03
1.36533425e+03
2.17211641e+03
1.38894712e+03
5.69963489e+02
1.88203386e+03
1.35813122e+03
2.13543577e+03
2.15021400e+03
8.36051913e+02
6.83307444e+02
1.29317925e+03
8.68315891e+02
0.00000000e+00
0.00000000e+00
2.16150539e+03
0.00000000e+00
1.66530315e+03
1.18249056e+03
1.54908633e+03
1.13908785e+03
2.02663665e+03
1.50270084e+03
1.24005574e+03
1.23284968e+03
2.46104146e+03
7.79637483e+02
1.99535647e+03
4.02393701e+02
5.38434344e+02
2.39639020e+03
2.30603592e+03
1.42196010e+03
1.26938987e+03
1.31502982e+03
0.00000000e+00
2.34501338e+03
9.73844556e+02
1.21750178e+03
8.26013950e+02
2.30480787e+02
2.24150477e+02
3.99471827e+02
2.02922073e+03
5.31672847e+02
5.61467719e+02
6.29280372e+02
2.23732901e+03
7.32053666e+02
3.96898263e+02
7.77158834e+02
6.53882114e+02
1.12809674e+03
0.00000000e+00
9.65618764e+02
0.00000000e+00
0.00000000e+00
1.78534261e+03
0.00000000e+00
1.25283634e+03
1.06890552e+03
1.01161432e+03
6.16169415e+02
1.68804677e+03
1.70694541e+03
2.22529991e+03
6.74292388e+02
2.27885246e+03
1.32482555e+03
2.24086586e+03
5.40762306e+02
6.66869614e+02
1.76179158e+03
2.21477405e+03
1.58712025e+03
1.51040657e+03
1.13750709e+03
0.00000000e+00
1.25515678e+03
0.00000000e+00
1.19818713e+03
1.16008478e+03
4.05137143e+02
1.19283148e+03
2.12781969e+02
2.20748085e+03
1.74362343e+03
2.35676865e+03
1.46656372e+03
1.86733538e+03
3.41265123e+02
1.91633231e+03
6.51425698e+02
8.60936486e+02
1.07980264e+03
0.00000000e+00
1.20646863e+03
1.10931514e+03
0.00000000e+00
1.76921265e+03
1.25539832e+03
1.72240608e+03
1.72434563e+03
9.57741369e+02
9.24516304e+02
1.93236912e+03
2.01995264e+03
7.58516812e+02
1.60648829e+03
2.42376148e+03
9.49313987e+02
2.37657172e+03
9.66306448e+02
1.19911211e+03
1.06067965e+03
2.33098166e+03
1.46536971e+03
2.09183652e+03
0.00000000e+00
8.33657202e+02
1.19414707e+03
9.68007755e+02
1.46375478e+03
1.17712464e+03
9.37507825e+02
1.34005402e+03
1.30763992e+03
1.89715096e+03
4.88293721e+02
8.33741406e+02
4.18324200e+02
8.87724249e+02
2.51415215e+02
4.71813173e+02
1.23891004e+03
1.28587548e+03
1.43571345e+03
1.46589665e+03
8.34267442e+02
0.00000000e+00
0.00000000e+00
8.20204519e+02
8.89000246e+02
1.31131903e+03
1.49323313e+03
1.20740711e+03
1.63012338e+03
2.17630573e+03
2.12325841e+03
4.29146908e+02
2.43767689e+03
4.80441006e+02
3.93548583e+02
2.76568869e+02
1.40592500e+03
1.45048241e+03
2.03775303e+03
1.03550881e+03
1.31484299e+03
1.03009461e+03
7.35125040e+02
0.00000000e+00
1.27919478e+03
1.37715409e+03
1.06761609e+03
8.37548396e+02
7.88586538e+02
1.00153960e+03
6.86065136e+02
7.73417429e+02
8.03625897e+02
1.20558151e+03
2.13375490e+03
9.88676083e+02
5.58944670e+02
8.43660359e+02
0.00000000e+00
1.70267325e+03
1.30759671e+03
1.46645048e+03
1.18983067e+03
0.00000000e+00
0.00000000e+00
1.46693419e+03
1.58781398e+03
9.56376851e+02
2.29910615e+03
7.19274374e+02
1.05304608e+03
6.42466314e+02
1.75765888e+03
6.19555030e+02
8.89668507e+02
6.80944988e+02
1.32456297e+03
1.14082694e+03
2.39592756e+03
8.95559458e+02
2.15710220e+03
1.26730862e+03
1.76034668e+03
1.13011810e+03
0.00000000e+00
0.00000000e+00
1.58043578e+03
9.72941468e+02
1.52775317e+03
7.50361485e+02
1.74653086e+03
1.25952924e+03
9.72806629e+02
1.38729580e+03
5.98192535e+02
1.09336726e+03
8.18933689e+02
2.09895389e+03
1.92902525e+03
1.05420057e+03
9.70537251e+02
1.16363265e+03
1.50775159e+03
1.07386004e+03
1.07964370e+03
6.77932175e+02
0.00000000e+00
1.26979586e+03
1.14054890e+03
1.09082880e+03
1.63135111e+03
1.27865950e+03
8.34869388e+02
0.00000000e+00
0.00000000e+00
0.00000000e+00
0.00000000e+00
0.00000000e+00
0.00000000e+00
0.00000000e+00
1.01628715e+03
1.18534761e+03
1.24301670e+03
1.07486848e+03
1.14617680e+03
1.48668716e+03
0.00000000e+00
0.00000000e+00
2.22896448e+03
1.39610338e+03
1.36415643e+03
1.13355611e+03
1.33421563e+03
1.09191813e+03
7.58984972e+02
1.14741054e+03
7.54755644e+02
1.74851974e+03
1.02736650e+03
2.36547795e+03
8.55649819e+02
9.01088390e+02
9.60343593e+02
1.03288563e+03
1.20548062e+03
1.42642733e+03
2.14095963e+03
0.00000000e+00
0.00000000e+00
1.09293576e+03
1.10865462e+03
0.00000000e+00
8.67499744e+02
8.95776261e+02
0.00000000e+00
0.00000000e+00
0.00000000e+00
5.99945554e+02
0.00000000e+00
0.00000000e+00
0.00000000e+00
5.85160121e+02
0.00000000e+00
0.00000000e+00
0.00000000e+00
6.93931616e+02
8.14870921e+02
0.00000000e+00
9.18704782e+02
0.00000000e+00
0.00000000e+00
5.88258052e+02
0.00000000e+00
1.04611196e+03
0.00000000e+00
0.00000000e+00
7.18056129e+02
0.00000000e+00
9.21042794e+02
7.23882983e+02
1.47963347e+03
7.32640714e+02
9.32535474e+02
1.28428610e+03
7.39174614e+02
7.97137183e+02
8.60851165e+02
9.02109212e+02
0.00000000e+00
9.83794917e+02
0.00000000e+00
1.48717302e+03
1.40689813e+03
9.74309367e+02
1.22876857e+03
8.12512837e+02
1.02502063e+03
9.81872764e+02
2.38711914e+03
6.94483775e+02
1.15825668e+03
1.43784313e+03
3.60444679e+02
1.05267903e+03
1.06002281e+03
1.86536042e+03
2.10800152e+03
2.03012290e+03
1.48152947e+03
9.79623310e+02
1.03483409e+03
0.00000000e+00
1.08837170e+03
2.01775186e+03
2.40118641e+03
2.01048101e+03
2.13654387e+03
2.46812427e+03
5.64467782e+02
1.04801086e+03
1.61317557e+03
7.63304620e+02
1.43745054e+03
1.32762808e+03
1.35429017e+03
1.42235973e+03
2.23826835e+03
1.34237026e+03
1.62053595e+03
8.96304958e+02
1.76220218e+03
0.00000000e+00
0.00000000e+00
7.71060742e+02
1.86095247e+03
8.83737914e+02
1.89040337e+03
1.02817655e+03
1.75696970e+03
1.27821467e+03
1.18725601e+03
1.45450976e+02
9.76570423e+01
2.05463660e+03
2.05939546e+03
9.71429165e+02
1.75035236e+03
1.56439799e+03
1.64939958e+03
1.61881597e+03
1.57200046e+03
1.89680630e+03
9.94748410e+02
0.00000000e+00
1.21187996e+03
9.16625360e+02
1.05057818e+03
1.71421634e+03
2.04376343e+03
1.03134648e+03
1.87191535e+03
9.14246266e+02
1.22185640e+03
1.55644244e+03
6.66013947e+02
1.10789465e+03
2.18316067e+03
1.14951919e+03
1.15045287e+03
1.98040891e+03
1.36883845e+03
2.30509512e+03
1.95089038e+03
0.00000000e+00
0.00000000e+00
1.46246704e+03
8.10409938e+02
1.46871055e+03
2.32579291e+03
1.34627360e+03
1.10432481e+03
1.91059606e+03
1.13148625e+03
1.93885465e+03
7.06673763e+02
1.28664328e+03
6.74818292e+02
0.00000000e+00
2.14493615e+03
1.87788796e+03
1.83441918e+03
8.29785337e+02
1.79540518e+03
1.58373950e+03
8.54258591e+02
6.19990201e+02
1.48151902e+03
1.60514723e+03
1.32191723e+03
1.14390508e+03
1.40291109e+03
1.32660937e+03
1.72142240e+03
8.87297116e+02
2.44323430e+03
1.06103673e+03
1.46641032e+03
1.36077101e+03
4.80761792e+02
2.14280407e+03
1.55657264e+03
2.20821921e+03
2.34306787e+03
1.35521853e+03
1.15148337e+03
0.00000000e+00
0.00000000e+00
4.54411620e+02
2.51211183e+03
2.23818641e+03
2.12855476e+03
1.85952377e+03
7.36852601e+02
7.91598877e+02
1.14421806e+03
2.09163209e+03
2.41886971e+03
1.52477260e+03
1.72375567e+03
2.03474199e+03
2.33197265e+03
9.06438213e+02
2.22414103e+03
2.16105094e+03
1.99216964e+03
8.47536735e+02
0.00000000e+00
0.00000000e+00
0.00000000e+00
9.83455043e+02
1.29477817e+03
2.05396710e+03
1.78443498e+03
2.32896072e+03
1.32462587e+03
1.44673034e+03
1.09015075e+03
2.14859596e+03
1.19992038e+03
1.65943701e+03
9.11615935e+02
1.91601253e+03
1.48770193e+03
2.09314107e+03
1.72193885e+03
1.36002622e+03
1.22391911e+03
0.00000000e+00
0.00000000e+00
0.00000000e+00
2.23484834e+03
1.12983523e+03
2.16097014e+03
2.41330113e+03
2.44974340e+03
6.61485920e+02
1.22155328e+03
2.01106449e+03
8.90357864e+02
1.04579999e+03
1.59078982e+03
1.05557635e+03
1.82277468e+03
1.16512556e+03
1.49305261e+03
1.12909007e+03
1.25221564e+03
1.03732437e+03
1.19258231e+03
4.35634846e+02
0.00000000e+00
2.02837068e+03
1.22271376e+03
2.09276180e+03
1.02504604e+03
1.65005393e+03
1.21828857e+03
2.50487062e+03
2.14101073e+03
1.79098405e+03
2.46826341e+03
1.22943573e+03
2.31190884e+03
1.95131897e+03
1.04926394e+03
2.22165244e+03
1.34900896e+03
2.01817218e+03
1.20697931e+03
1.24880331e+03
0.00000000e+00
0.00000000e+00
2.25052386e+03
1.21968068e+03
2.03939125e+03
6.95602838e+02
1.56916151e+03
1.20089717e+03
2.49174264e+03
8.98745464e+02
1.17072034e+03
1.43941768e+03
1.35252664e+03
8.65717282e+02
1.43098781e+03
1.37860394e+03
1.30492761e+03
1.40751122e+03
2.35393608e+03
0.00000000e+00
1.04006556e+03
0.00000000e+00
0.00000000e+00
1.42365886e+03
1.16618194e+03
1.45731027e+03
8.42215346e+02
1.81283121e+03
2.46155789e+03
1.15349862e+03
2.40940710e+03
1.49023778e+03
2.32487872e+03
1.44987027e+03
2.35097845e+03
6.24465569e+02
2.36042762e+03
2.09017998e+03
1.46485215e+03
2.24928507e+03
0.00000000e+00
0.00000000e+00
0.00000000e+00
0.00000000e+00
2.36543707e+03
1.30752753e+03
1.87502199e+03
1.53722115e+03
1.62202061e+03
1.36029250e+03
1.60488308e+03
2.06622744e+03
1.06521024e+03
2.08365567e+03
1.91436993e+03
2.38846614e+03
8.26207464e+02
1.03523828e+03
2.34017545e+03
1.74633028e+03
1.39868181e+03
0.00000000e+00
0.00000000e+00
0.00000000e+00
2.07306856e+03
2.15270647e+03
1.71697884e+03
2.44057696e+03
2.28672075e+03
1.24330253e+03
6.63949205e+02
2.20753059e+03
1.90514673e+03
1.60902760e+03
2.35520345e+03
8.97254769e+02
7.16383274e+02
2.37514951e+03
2.40659143e+03
1.51496094e+03
1.77826668e+03
2.02523098e+03
1.21947068e+03
0.00000000e+00
0.00000000e+00
1.65536069e+03
2.55435690e+03
1.91621141e+03
1.70755143e+03
1.26304226e+03
2.47110622e+03
1.24279237e+03
2.34458444e+03
1.99285901e+03
1.31500608e+03
1.72484057e+03
1.60544524e+03
1.46674934e+03
1.79953186e+03
1.86154449e+03
1.96802905e+03
1.77799841e+03
1.47514933e+03
1.14397509e+03
0.00000000e+00
0.00000000e+00
2.36669314e+03
5.78183183e+02
2.46998383e+03
1.08665187e+03
1.17512507e+03
1.06285246e+03
1.26949711e+03
1.78006587e+03
2.44477449e+03
1.00533898e+03
1.51236732e+03
8.22961273e+02
9.69622879e+02
1.71860170e+03
1.14644350e+03
2.37089806e+03
2.26567602e+03
2.03020063e+03
1.45168057e+03
0.00000000e+00
0.00000000e+00
1.44605413e+03
1.63969157e+03
1.19198909e+03
1.16807942e+03
2.28361997e+03
2.36376626e+03
1.63330988e+03
1.02753745e+03
8.02005264e+02
8.64247140e+02
9.42521773e+02
9.57967311e+02
1.13609037e+03
1.66545963e+03
2.49880363e+03
2.24982849e+03
1.98174087e+03
1.73290508e+03
1.28310642e+03
9.01155042e+02
0.00000000e+00
1.47196418e+03
2.17400016e+03
1.87055765e+03
1.58847619e+03
1.44254768e+03
1.38050532e+03
1.99763295e+03
1.59910810e+03
1.55307521e+03
1.18285773e+03
2.34157218e+03
1.46048503e+03
1.40620721e+03
1.45703804e+03
2.20794019e+03
2.38072999e+03
2.49306409e+03
1.46457702e+03
1.68582309e+03
0.00000000e+00
0.00000000e+00
1.35219350e+03
1.33061161e+03
1.85539664e+03
2.39767620e+03
1.89822141e+03
1.36479404e+03
0.00000000e+00
0.00000000e+00
0.00000000e+00
0.00000000e+00
6.78456768e+02
5.73539722e+02
0.00000000e+00
1.34467101e+03
1.22219964e+03
1.52335754e+03
1.26430813e+03
2.09444396e+03
1.31565878e+03
1.01478309e+03
1.04182402e+03
1.18661678e+03
1.06955474e+03
0.00000000e+00
0.00000000e+00
0.00000000e+00
0.00000000e+00
0.00000000e+00
0.00000000e+00
6.16900519e+02
0.00000000e+00
0.00000000e+00
0.00000000e+00
8.04723080e+02
8.10300420e+02
6.59871863e+02
0.00000000e+00
9.85906902e+02
8.91416700e+02
1.00043345e+03
0.00000000e+00
0.00000000e+00
8.30789495e+02
0.00000000e+00
2.22070140e+03
1.15907736e+03
1.36103706e+03