# vtk DataFile Version 3.0
MPS 3D Simulation Step 9000
ASCII
DATASET UNSTRUCTURED_GRID
POINTS 20213 double
-1.18804651e-03 3.33626077e-04 -7.75596900e-04
-1.06821636e-03 1.74767782e-04 -8.42339491e-04
-9.72895917e-04 3.13416966e-04 -1.01664792e-03
-9.19608536e-04 3.46698142e-04 -1.07061556e-03
-8.79878158e-04 1.70014380e-04 -1.01405853e-03
-8.65837104e-04 3.83391649e-04 -1.11573381e-03
-6.47605287e-04 2.41861262e-04 -1.20915798e-03
-5.07579729e-04 2.54404275e-04 -1.27409265e-03
-4.63250118e-04 4.66586385e-04 -1.23276726e-03
-3.86519706e-04 8.57961994e-04 -1.11919033e-03
-2.31861153e-04 9.44919340e-04 -1.08014977e-03
-3.72976793e-04 9.50527028e-04 -1.18728598e-03
-7.78448807e-05 7.26796989e-04 -1.07697390e-03
-5.58820315e-05 1.87155760e-04 -1.34609670e-03
6.70040307e-06 2.39967628e-04 -1.36769315e-03
4.88895746e-04 1.40481070e-04 -1.19948213e-03
1.78327708e-04 7.76041199e-04 -6.33532538e-04
4.76812034e-04 2.63479580e-04 -1.27880617e-03
5.18521117e-04 8.40778703e-04 -1.05962192e-03
7.21796992e-04 8.51170147e-04 -8.94637747e-04
1.11000052e-03 6.91653350e-04 -7.11928417e-04
-1.15119255e-03 2.46192379e-04 -7.74856982e-04
-1.10790292e-03 2.38410085e-04 -8.41622897e-04
-1.04184339e-03 3.26315403e-04 -9.62535370e-04
-9.51026176e-04 4.19997776e-04 -1.06020334e-03
-9.02399974e-04 5.40621451e-04 -1.09757521e-03
-1.02707405e-03 4.64071486e-04 -1.00292718e-03
-8.06192962e-04 4.16941276e-04 -1.15948639e-03
-6.16184391e-04 3.74800155e-04 -1.26878653e-03
-4.22713403e-04 2.22349528e-04 -1.29148612e-03
-4.64725215e-04 1.17758386e-04 -1.18974450e-03
-1.23280657e-04 2.29183054e-04 -1.36426646e-03
1.01233131e-04 2.17134312e-04 -1.35795699e-03
1.47653643e-04 4.22845384e-04 -1.40104504e-03
2.14955542e-04 3.64596925e-04 -1.38713770e-03
2.50233789e-04 2.94720129e-04 -1.36207854e-03
4.46072353e-04 1.90260964e-04 -1.25778780e-03
4.06080834e-04 3.33836015e-04 -1.32822687e-03
3.99648045e-04 7.76649373e-04 -1.23320310e-03
3.97745950e-04 2.53226996e-04 -1.30807506e-03
5.28009046e-04 2.17600441e-04 -1.23608597e-03
7.80099463e-04 1.30262537e-04 -1.02431080e-03
-1.14127415e-03 3.12476854e-04 -8.38024207e-04
-1.10714189e-03 3.53481356e-04 -8.99803075e-04
-1.09612537e-03 5.79224004e-04 -9.33947308e-04
-8.33289240e-04 3.04527079e-04 -1.11736033e-03
-1.00865620e-03 3.86378857e-04 -1.01260794e-03
-8.92918109e-04 4.60453540e-04 -1.10430112e-03
-5.96869545e-04 2.93757907e-04 -1.25219888e-03
-7.23721681e-04 2.86054104e-04 -1.18413910e-03
-4.65340991e-04 3.74928579e-04 -1.33055176e-03
-3.46193211e-04 2.18090069e-04 -1.31388820e-03
-1.60565808e-04 4.00484296e-04 -1.39936943e-03
-6.68388260e-05 2.80016747e-04 -1.38149688e-03
7.25635177e-05 4.66578156e-04 -1.41109014e-03
2.92814606e-04 3.82770022e-04 -1.37150318e-03
2.44256241e-04 2.08058449e-04 -1.33739652e-03
3.93405058e-04 4.87650701e-04 -1.35382909e-03
4.56872294e-04 4.19106357e-04 -1.32097218e-03
3.73125936e-04 4.04971448e-04 -1.34969565e-03
6.39009278e-04 3.12921435e-04 -1.21694755e-03
7.22370790e-04 2.03970902e-04 -1.12928539e-03
7.13942247e-04 1.41393731e-04 -1.08443479e-03
-1.20771157e-03 4.20513949e-04 -7.67638589e-04
-1.12836054e-03 4.45664405e-04 -8.93438594e-04
-1.08471958e-03 4.94516993e-04 -9.48752109e-04
-9.66479438e-04 4.97716031e-04 -1.05326843e-03
-8.29714812e-04 5.01644973e-04 -1.14726121e-03
-7.25855728e-04 3.87415219e-04 -1.20948578e-03
-6.72258739e-04 3.27953081e-04 -1.22909177e-03
-3.65488808e-04 2.98799397e-04 -1.33967857e-03
-3.10208175e-04 3.55910195e-04 -1.37221434e-03
-3.98689291e-04 1.57076201e-04 -1.25972263e-03
-8.75203021e-05 4.49993504e-04 -1.40937470e-03
-1.70160800e-04 1.79350957e-04 -1.33472945e-03
-8.16965895e-05 3.59956835e-04 -1.39880570e-03
1.80027644e-06 3.27154870e-04 -1.39397789e-03
2.30269535e-04 4.51745950e-04 -1.39170426e-03
3.30935712e-04 3.12376625e-04 -1.34844250e-03
3.98957317e-04 5.69687336e-04 -1.36068975e-03
6.90991467e-04 3.77114609e-04 -1.20641513e-03
6.83668607e-04 2.54143328e-04 -1.17562866e-03
7.75139462e-04 2.64297859e-04 -1.12195951e-03
8.39017271e-04 3.09284273e-04 -1.09570770e-03
-1.22275878e-03 5.03375467e-04 -7.48049100e-04
-1.04681721e-03 6.26420820e-04 -9.81202206e-04
-1.07393984e-03 4.05305664e-04 -9.50513219e-04
-8.40072979e-04 5.87811285e-04 -1.14212625e-03
-6.96110193e-04 5.11524044e-04 -1.23937463e-03
-7.56375259e-04 4.71529115e-04 -1.19785620e-03
-3.88131907e-04 3.82316708e-04 -1.35700367e-03
-3.17545471e-04 4.36748198e-04 -1.38313727e-03
-2.30116372e-04 3.48663960e-04 -1.38322116e-03
-1.64894312e-04 4.89883578e-04 -1.40741007e-03
-8.78592760e-05 5.37793168e-04 -1.41579756e-03
-2.08576633e-04 2.52618395e-04 -1.36012944e-03
-1.09380580e-05 4.96665469e-04 -1.41614015e-03
1.98209126e-04 6.05085560e-04 -1.40520652e-03
-6.22133838e-06 4.11295664e-04 -1.40699218e-03
3.12188121e-04 4.70194876e-04 -1.37418498e-03
3.18369159e-04 5.53837843e-04 -1.37981585e-03
5.60319677e-04 3.02844348e-04 -1.25038705e-03
7.32279279e-04 3.20755158e-04 -1.16929623e-03
7.95354622e-04 3.61930408e-04 -1.14199547e-03
8.23208678e-04 4.48487141e-04 -1.13708432e-03
-1.20834040e-03 6.38281206e-04 -7.76027479e-04
-1.14142241e-03 5.32088422e-04 -8.81768153e-04
-9.85977695e-04 6.60870229e-04 -1.02966790e-03
-1.03182810e-03 5.47067311e-04 -9.98367580e-04
-7.71460905e-04 5.57393647e-04 -1.19005225e-03
-6.13084450e-04 4.66801672e-04 -1.28486191e-03
-5.46388606e-04 4.09546925e-04 -1.30705183e-03
-4.73072682e-04 4.54875269e-04 -1.34095728e-03
-2.38809896e-04 4.36327592e-04 -1.39491889e-03
-3.24460250e-04 5.16316803e-04 -1.38877596e-03
-2.47135869e-04 5.25740222e-04 -1.40293245e-03
-1.55427873e-04 3.09937603e-04 -1.38370569e-03
1.53906582e-04 5.07994524e-04 -1.40667856e-03
2.38950635e-04 5.34488190e-04 -1.39523023e-03
7.46982683e-05 2.88946334e-04 -1.38260083e-03
1.84609924e-04 7.64143047e-04 -1.39580618e-03
2.79759984e-04 6.28428847e-04 -1.39199235e-03
4.72019145e-04 5.05279602e-04 -1.32862075e-03
6.14787861e-04 3.90249174e-04 -1.24701558e-03
7.49745614e-04 4.30033377e-04 -1.18023892e-03
9.01652549e-04 4.70490746e-04 -1.08385326e-03
-1.19016136e-03 5.65053032e-04 -8.09686929e-04
-1.17893700e-03 4.83614018e-04 -8.24786391e-04
-1.04333285e-03 7.08993712e-04 -9.71285575e-04
-9.13791622e-04 6.24386152e-04 -1.09067035e-03
-7.83867519e-04 6.41633556e-04 -1.18361292e-03
-6.31299606e-04 5.48158112e-04 -1.27728883e-03
-5.45092916e-04 4.97909623e-04 -1.31669254e-03
-3.98035000e-04 4.67674580e-04 -1.36603300e-03
-4.80779223e-04 5.40928231e-04 -1.34324625e-03
-4.05103743e-04 5.51537580e-04 -1.36879118e-03
-1.77483373e-04 5.72979580e-04 -1.41199811e-03
-1.55208351e-05 5.90913114e-04 -1.42109364e-03
5.57088647e-05 5.47240436e-04 -1.41959805e-03
1.24039778e-04 5.83776566e-04 -1.41613479e-03
1.38893207e-04 6.72655902e-04 -1.41271047e-03
4.77754279e-04 5.85119738e-04 -1.33832525e-03
4.40808468e-04 6.57170495e-04 -1.35174468e-03
5.42273117e-04 3.81669298e-04 -1.28083159e-03
5.36027020e-04 4.62867144e-04 -1.29858024e-03
8.51418605e-04 5.24474242e-04 -1.12842211e-03
8.10142535e-04 5.86569500e-04 -1.16409972e-03
-1.21712953e-03 7.16829021e-04 -7.47472803e-04
-1.14950251e-03 6.15941701e-04 -8.66615102e-04
-1.10384093e-03 6.65081665e-04 -9.18292490e-04
-9.74031874e-04 5.80713810e-04 -1.04759423e-03
-7.07499756e-04 5.92032240e-04 -1.23424216e-03
-5.61268410e-04 5.82163381e-04 -1.31125543e-03
-5.69594974e-04 6.61402874e-04 -1.30410222e-03
-4.87121824e-04 6.24928090e-04 -1.33938937e-03
-4.11989695e-04 6.34959624e-04 -1.36556927e-03
-3.32626188e-04 5.98121531e-04 -1.38854109e-03
-2.56759904e-04 6.12926217e-04 -1.40166578e-03
-1.06673171e-04 6.19212099e-04 -1.41849641e-03
-4.17811817e-05 6.69267760e-04 -1.41820899e-03
5.80634441e-05 6.41005721e-04 -1.41832657e-03
1.01290289e-04 7.41803771e-04 -1.40951195e-03
3.59178824e-04 6.43577629e-04 -1.37354925e-03
3.05150655e-04 7.10527936e-04 -1.38143972e-03
5.27124531e-04 6.45225986e-04 -1.32260428e-03
6.06588110e-04 4.79105138e-04 -1.26799729e-03
7.69489547e-04 5.11139481e-04 -1.17976195e-03
7.80431219e-04 6.78981726e-04 -1.18821538e-03
-1.17203960e-03 6.84430294e-04 -8.28724535e-04
-1.13128640e-03 7.29411271e-04 -8.77195281e-04
-1.07828130e-03 7.65545309e-04 -9.24747453e-04
-7.93900077e-04 7.21745274e-04 -1.16797474e-03
-7.19354967e-04 6.71373846e-04 -1.22381587e-03
-6.41980443e-04 6.29976717e-04 -1.27035749e-03
-5.80545938e-04 7.41733183e-04 -1.28920541e-03
-5.00517820e-04 7.05683735e-04 -1.32844886e-03
-4.22857286e-04 7.16686465e-04 -1.35386078e-03
-3.38777422e-04 6.80453538e-04 -1.38165777e-03
-2.62158718e-04 6.99530341e-04 -1.39413840e-03
-1.81665680e-04 6.62456948e-04 -1.40831333e-03
-1.11941622e-04 7.13869723e-04 -1.41026288e-03
-4.33752553e-05 7.64311064e-04 -1.40453858e-03
2.47354644e-05 7.13773323e-04 -1.41643310e-03
2.67458895e-04 7.83065685e-04 -1.37843611e-03
2.91525359e-04 8.64513277e-04 -1.35089714e-03
3.88776368e-04 7.27780901e-04 -1.35945349e-03
5.51848166e-04 5.52562501e-04 -1.30250181e-03
6.77821325e-04 4.59388441e-04 -1.22702965e-03
7.45854730e-04 6.06987347e-04 -1.20792175e-03
-1.17662704e-03 7.63853333e-04 -8.00509708e-04
-1.06934905e-03 8.46428093e-04 -8.99408369e-04
-9.81907739e-04 7.47643596e-04 -1.01892310e-03
-8.53548141e-04 6.71530012e-04 -1.13003012e-03
-8.06684436e-04 7.98978558e-04 -1.13978672e-03
-6.50980785e-04 7.08549699e-04 -1.25850357e-03
-6.60883346e-04 7.87578917e-04 -1.23696158e-03
-5.11604782e-04 7.86119586e-04 -1.30982458e-03
-4.37877841e-04 7.95273589e-04 -1.33431525e-03
-3.50690179e-04 7.61181593e-04 -1.36651758e-03
-2.74487716e-04 7.85325597e-04 -1.37702122e-03
-1.92558742e-04 7.49023266e-04 -1.39600586e-03
-1.26397551e-04 8.00938539e-04 -1.39335866e-03
-5.23384553e-05 8.46480841e-04 -1.38666102e-03
3.76247967e-05 8.00697008e-04 -1.39905520e-03
2.08190417e-04 8.45363254e-04 -1.37315648e-03
3.77294718e-04 8.73757486e-04 -1.32695399e-03
3.48231714e-04 7.99017803e-04 -1.35663041e-03
5.98476155e-04 6.30198572e-04 -1.29151737e-03
7.04096393e-04 5.36266336e-04 -1.22392415e-03
7.35510993e-04 7.64776355e-04 -1.20343225e-03
-1.12687341e-03 8.08886347e-04 -8.51125919e-04
-1.05599806e-03 9.25722825e-04 -8.71249640e-04
[...]
POINT_DATA 20213
SCALARS pressure double 1
LOOKUP_TABLE default
1.16601380e+03
0.00000000e+00
9.72388642e+02
0.00000000e+00
0.00000000e+00
1.06844196e+03
0.00000000e+00
1.14471885e+03
1.25501827e+03
1.21041458e+03
1.17103633e+03
9.91591219e+02
1.55814386e+03
0.00000000e+00
6.22229538e+02
6.24912568e+02
2.56215153e+03
6.17450388e+02
1.27811714e+03
1.44041585e+03
8.99799236e+02
1.11688730e+03
0.00000000e+00
9.59379575e+02
1.01726532e+03
7.93483942e+02
9.18491373e+02
1.13141958e+03
1.12747399e+03
0.00000000e+00
8.86718653e+02
0.00000000e+00
0.00000000e+00
0.00000000e+00
0.00000000e+00
0.00000000e+00
0.00000000e+00
0.00000000e+00
9.50935057e+02
0.00000000e+00
0.00000000e+00
0.00000000e+00
0.00000000e+00
9.45659283e+02
8.17871356e+02
1.07518565e+03
0.00000000e+00
1.05032646e+03
1.14763910e+03
1.06157447e+03
0.00000000e+00
0.00000000e+00
0.00000000e+00
7.62106979e+02
0.00000000e+00
0.00000000e+00
0.00000000e+00
0.00000000e+00
6.93510084e+02
0.00000000e+00
0.00000000e+00
0.00000000e+00
0.00000000e+00
1.07374449e+03
0.00000000e+00
9.54862891e+02
0.00000000e+00
9.75824329e+02
0.00000000e+00
0.00000000e+00
8.40011074e+02
9.60147397e+02
0.00000000e+00
8.60646900e+02
7.53468568e+02
0.00000000e+00
6.36942424e+02
0.00000000e+00
0.00000000e+00
0.00000000e+00
0.00000000e+00
0.00000000e+00
0.00000000e+00
0.00000000e+00
0.00000000e+00
0.00000000e+00
1.11090331e+03
8.83348014e+02
1.19087443e+03
0.00000000e+00
1.03615305e+03
1.18818678e+03
8.72319610e+02
1.07609194e+03
1.02259393e+03
8.71733602e+02
8.58470553e+02
8.40256156e+02
0.00000000e+00
5.44542172e+02
7.29181009e+02
0.00000000e+00
0.00000000e+00
0.00000000e+00
0.00000000e+00
0.00000000e+00
0.00000000e+00
0.00000000e+00
8.41669390e+02
9.72357307e+02
1.19952974e+03
0.00000000e+00
9.93932026e+02
1.06194418e+03
1.16025611e+03
0.00000000e+00
0.00000000e+00
0.00000000e+00
0.00000000e+00
0.00000000e+00
1.06962926e+03
8.74542508e+02
0.00000000e+00
0.00000000e+00
0.00000000e+00
7.19158561e+02
0.00000000e+00
0.00000000e+00
7.91828166e+02
0.00000000e+00
0.00000000e+00
1.22540871e+03
1.13584107e+03
0.00000000e+00
0.00000000e+00
0.00000000e+00
0.00000000e+00
8.83408573e+02
0.00000000e+00
0.00000000e+00
0.00000000e+00
0.00000000e+00
0.00000000e+00
7.63304012e+02
0.00000000e+00
0.00000000e+00
7.64815205e+02
0.00000000e+00
6.86354983e+02
0.00000000e+00
0.00000000e+00
1.03054497e+03
1.15009206e+03
0.00000000e+00
1.18154490e+03
1.30388281e+03
1.24604889e+03
1.23854984e+03
0.00000000e+00
0.00000000e+00
9.18661005e+02
1.07811764e+03
0.00000000e+00
9.99582620e+02
0.00000000e+00
7.80953391e+02
0.00000000e+00
0.00000000e+00
0.00000000e+00
0.00000000e+00
7.62261579e+02
0.00000000e+00
0.00000000e+00
9.56016477e+02
0.00000000e+00
1.12718854e+03
1.36187435e+03
1.42587905e+03
1.35586606e+03
1.21035568e+03
1.06272682e+03
1.17058127e+03
0.00000000e+00
9.64096633e+02
0.00000000e+00
8.62052766e+02
8.40268551e+02
0.00000000e+00
8.71573447e+02
6.54711223e+02
0.00000000e+00
6.73771853e+02
0.00000000e+00
7.30373224e+02
0.00000000e+00
0.00000000e+00
1.08452402e+03
1.31945466e+03
1.36195518e+03
1.30761849e+03
1.20308337e+03
1.15625415e+03
1.07678960e+03
1.18459387e+03
1.05364049e+03
0.00000000e+00
0.00000000e+00
1.04628606e+03
8.73175321e+02
0.00000000e+00
0.00000000e+00
0.00000000e+00
0.00000000e+00
0.00000000e+00
0.00000000e+00
0.00000000e+00
0.00000000e+00
9.39511519e+02
0.00000000e+00
1.23614301e+03
8.47394797e+02
1.09893213e+03
0.00000000e+00
8.29955749e+02
1.05293903e+03
1.21827142e+03
1.05721539e+03
7.33823892e+02
0.00000000e+00
1.14499136e+03
0.00000000e+00
5.80787237e+02
0.00000000e+00
0.00000000e+00
6.82523741e+02
6.13780856e+02
0.00000000e+00
0.00000000e+00
0.00000000e+00
0.00000000e+00
0.00000000e+00
9.87080488e+02
0.00000000e+00
6.13472420e+02
0.00000000e+00
1.20189732e+03
7.76522830e+02
0.00000000e+00
0.00000000e+00
0.00000000e+00
9.58781659e+02
8.11613943e+02
0.00000000e+00
0.00000000e+00
0.00000000e+00
0.00000000e+00
0.00000000e+00
0.00000000e+00
0.00000000e+00
0.00000000e+00
0.00000000e+00
9.19741648e+02
0.00000000e+00
0.00000000e+00
0.00000000e+00
9.18765799e+02
0.00000000e+00
0.00000000e+00
0.00000000e+00
0.00000000e+00
8.24501165e+02
0.00000000e+00
9.18930025e+02
0.00000000e+00
0.00000000e+00
0.00000000e+00
0.00000000e+00
7.71264776e+02
0.00000000e+00
0.00000000e+00
0.00000000e+00
8.75156108e+02
0.00000000e+00
0.00000000e+00
0.00000000e+00
0.00000000e+00
0.00000000e+00
8.01866621e+02
0.00000000e+00
0.00000000e+00
6.66651050e+02
1.05148482e+03
0.00000000e+00
0.00000000e+00
0.00000000e+00
0.00000000e+00
0.00000000e+00
0.00000000e+00
8.88524172e+02
1.07730356e+03
0.00000000e+00
0.00000000e+00
8.41705328e+02
6.82442496e+02
0.00000000e+00
0.00000000e+00
0.00000000e+00
7.36165342e+02
0.00000000e+00
0.00000000e+00
0.00000000e+00
0.00000000e+00
9.17570743e+02
0.00000000e+00
1.00734153e+03
0.00000000e+00
0.00000000e+00
0.00000000e+00
9.23167041e+02
1.06784907e+03
1.07028836e+03
1.05715582e+03
0.00000000e+00
0.00000000e+00
7.52922566e+02
0.00000000e+00
0.00000000e+00
6.63847414e+02
7.56863494e+02
7.51393166e+02
7.70986579e+02
0.00000000e+00
9.59982035e+02
0.00000000e+00
9.35902694e+02
0.00000000e+00
0.00000000e+00
0.00000000e+00
0.00000000e+00
1.07312867e+03
1.03051549e+03
1.14357739e+03
9.63969052e+02
0.00000000e+00
7.87951240e+02
6.70849758e+02
0.00000000e+00
0.00000000e+00
0.00000000e+00
6.24777904e+02
0.00000000e+00
9.20755489e+02
8.62687423e+02
0.00000000e+00
8.58905624e+02
8.41903911e+02
7.83823143e+02
0.00000000e+00
0.00000000e+00
9.08654705e+02
9.23848055e+02
9.81776153e+02
0.00000000e+00
0.00000000e+00
0.00000000e+00
9.20104100e+02
9.21476094e+02
0.00000000e+00
0.00000000e+00
0.00000000e+00
0.00000000e+00
9.82737369e+02
9.45166005e+02
1.00561301e+03
9.57411008e+02
0.00000000e+00
8.79090206e+02
0.00000000e+00
0.00000000e+00
0.00000000e+00
0.00000000e+00
9.11789164e+02
1.06305792e+03
0.00000000e+00
0.00000000e+00
0.00000000e+00
0.00000000e+00
0.00000000e+00
0.00000000e+00
0.00000000e+00
0.00000000e+00
0.00000000e+00
0.00000000e+00
9.07709850e+02
1.01081192e+03
9.96945076e+02
7.49837047e+02
0.00000000e+00
0.00000000e+00
6.89799831e+02
9.34681551e+02
1.12045556e+03
1.05548843e+03
0.00000000e+00
0.00000000e+00
9.97714314e+02
7.93482082e+02
8.73721577e+02
0.00000000e+00
5.94304357e+02
0.00000000e+00
0.00000000e+00
0.00000000e+00
7.75088321e+02
9.62349975e+02
0.00000000e+00
9.88704082e+02
0.00000000e+00
0.00000000e+00
8.58736958e+02
0.00000000e+00
0.00000000e+00
1.06203455e+03
1.22158368e+03
0.00000000e+00
0.00000000e+00
9.98974834e+02
0.00000000e+00
9.25944744e+02
8.72140994e+02
0.00000000e+00
0.00000000e+00
0.00000000e+00
0.00000000e+00
6.83418393e+02
0.00000000e+00
9.39474663e+02
0.00000000e+00
0.00000000e+00
0.00000000e+00
8.52617302e+02
1.17517831e+03
1.34205575e+03
9.47319395e+02
0.00000000e+00
8.69329527e+02
0.00000000e+00
1.65989793e+03
1.20396893e+03
9.21297233e+02
1.33406679e+03
1.72544099e+03
2.04432521e+03
1.31870133e+03
9.99620607e+02
8.08191262e+02
1.88730157e+03
8.08552975e+02
1.25004274e+03
1.24922789e+03
0.00000000e+00
0.00000000e+00
1.37725078e+03
1.46825823e+03
4.59710105e+02
2.28709616e+03
1.08404983e+03
1.31623041e+03
1.21513539e+03
1.49655731e+03
1.20165736e+03
1.75732446e+03
2.28700738e+03
2.49470248e+03
1.18455147e+03
2.48674379e+03
2.41930819e+03
1.95823368e+03
1.53225232e+03
1.63163177e+03
1.98526993e+03
1.50806022e+03
0.00000000e+00
9.68317483e+02
1.30831936e+03
1.52088096e+03
1.74308068e+03
1.08975444e+03
1.24628739e+03
2.14550318e+03
1.10334861e+03
7.06971867e+02
1.43469488e+03
0.00000000e+00
0.00000000e+00
0.00000000e+00
0.00000000e+00
1.75625954e+03
1.11713039e+03
1.47073668e+03
1.06007702e+03
1.56533577e+03
1.12735932e+03
0.00000000e+00
1.23785565e+03
3.71596542e+02
2.40928012e+03
1.34000566e+03
1.41551371e+03
2.00745564e+03
1.06717650e+03
1.44899816e+03
1.24235694e+03
1.01427059e+03
1.47270705e+03
1.75552550e+03
2.42290960e+03
1.36785989e+03
9.43947622e+02
9.95210216e+02
2.07487330e+03
2.09987959e+03
1.28023316e+03
2.31443112e+03
7.44367558e+02
0.00000000e+00
9.72909124e+02
2.19345476e+03
1.94144014e+03
2.31532471e+03
2.05866102e+03
2.26538130e+03
8.09322400e+02
8.20275430e+02
2.22980598e+03
2.32646548e+03
2.30268526e+03
1.42680105e+03
1.17160008e+03
0.00000000e+00
2.53523974e+03
1.10221274e+03
1.31672389e+03
1.56183000e+03
9.84991132e+02
9.65724873e+02
1.45612263e+03
2.02995853e+03
9.31865267e+02
1.30624495e+03
1.90577121e+03
1.18527809e+03
2.43724946e+03
1.30270441e+03
9.53476041e+02
7.08046302e+02
2.48671463e+03
6.18087678e+02
2.01248619e+03
1.87442281e+03
1.36255233e+03
9.49065555e+02
1.47530598e+03
1.30244784e+03
1.00803984e+03
1.85259441e+03
1.01616776e+03
9.72731867e+02
1.53727436e+03
1.41189877e+03
1.76421656e+03
1.82834786e+03
1.11856290e+03
2.13703414e+03
1.57351135e+03
1.00751750e+03
2.23068590e+03
6.67358311e+02
1.83783935e+03
2.26518672e+03
1.47348583e+03
1.46208719e+03
1.87209591e+03
1.56565379e+03
1.00992703e+03
1.11551669e+03
9.97748556e+02
0.00000000e+00
0.00000000e+00
1.10911554e+03
7.25062346e+02
1.45309729e+03
1.44160326e+03
1.78983402e+03
1.72957229e+03
2.37252919e+03
1.79148765e+03
2.07531874e+03
1.38894529e+03
1.05774209e+03
2.18613117e+03
1.44996291e+03
2.21504138e+03
2.41958963e+03
1.17446107e+03
1.06775408e+03
9.25082079e+02
9.67596925e+02
8.90095757e+02
9.16814441e+02
2.43854158e+03
7.40339602e+02
2.04034680e+03
1.37171886e+03
1.55924430e+03
1.43785306e+03
1.92140743e+03
1.52205556e+03
1.20645865e+03
1.39413543e+03
2.48137195e+03
9.42178912e+02
2.04023621e+03
9.89775496e+02
1.13687364e+03
2.31783891e+03
2.45485303e+03
9.86431634e+02
1.31552844e+03
9.84097018e+02
0.00000000e+00
2.44429961e+03
0.00000000e+00
1.36281294e+03
1.23115877e+03
1.03962444e+03
1.01216144e+03
1.04066891e+03
2.01767196e+03
1.12617448e+03
1.17668250e+03
1.19340096e+03
2.45105995e+03
1.05987772e+03
7.66390148e+02
1.14152984e+03
1.05798033e+03
1.24970920e+03
9.50127459e+02
1.00914246e+03
0.00000000e+00
5.97542971e+02
2.22180308e+03
6.45984508e+02
1.45762343e+03
1.22845980e+03
1.25100414e+03
1.22057031e+03
1.87773789e+03
1.80175041e+03
2.32731557e+03
1.12347020e+03
2.46231155e+03
9.91937606e+02
2.31730326e+03
1.00545860e+03
1.12657093e+03
1.81070511e+03
2.01240089e+03
9.34794687e+02
1.50163106e+03
1.10942956e+03
0.00000000e+00
1.32487691e+03
8.30520537e+02
1.38786176e+03
1.15136319e+03
9.74404342e+02
1.32239872e+03
9.90883433e+02
2.37614036e+03
1.88826450e+03
2.37840173e+03
1.47477097e+03
1.94765605e+03
6.42360932e+02
2.02618048e+03
1.11263627e+03
1.02417449e+03
1.09807348e+03
0.00000000e+00
1.00837181e+03
0.00000000e+00
0.00000000e+00
2.25001884e+03
5.47419565e+02
1.97201919e+03
1.95324689e+03
9.63099130e+02
1.34483459e+03
1.99943828e+03
1.99065132e+03
1.17887640e+03
1.70033908e+03
2.46636068e+03
5.43653855e+02
2.29044434e+03
1.26877320e+03
1.26143481e+03
1.27019249e+03
2.44316982e+03
9.02399750e+02
2.46893579e+03
1.02625275e+03
0.00000000e+00
1.13660606e+03
0.00000000e+00
1.67110651e+03
1.16289203e+03
1.04369312e+03
1.56189575e+03
1.60636682e+03
2.14830854e+03
1.05885613e+03
1.43277810e+03
1.19532168e+03
1.12196458e+03
7.63671990e+02
7.84362591e+02
1.33477855e+03
1.48726801e+03
1.59739524e+03
8.87577403e+02
9.50682914e+02
0.00000000e+00
0.00000000e+00
1.51764385e+03
1.47671075e+03
1.58741524e+03
1.93861834e+03
1.62632490e+03
1.90215991e+03
2.35156869e+03
2.18399823e+03
1.01521740e+03
2.47736483e+03
1.00049740e+03
8.06989988e+02
9.25936982e+02
1.49358435e+03
1.58173367e+03
2.30845282e+03
1.10194176e+03
1.25313912e+03
1.05527870e+03
8.92347949e+02
0.00000000e+00
1.43240650e+03
1.61931948e+03
1.34488239e+03
1.19788844e+03
1.26009824e+03
1.44335181e+03
1.03796239e+03
1.24825582e+03
1.21913439e+03
1.66673669e+03
2.31809298e+03
1.24475347e+03
9.22803836e+02
1.13180312e+03
0.00000000e+00
2.05843197e+03
1.17506707e+03
1.43481157e+03
1.03298385e+03
8.50608645e+02
0.00000000e+00
1.64026686e+03
1.83966864e+03
1.51161453e+03
2.40609026e+03
1.46213581e+03
1.41350740e+03
9.49568378e+02
2.01445397e+03
1.04951468e+03
1.16806866e+03
1.03805340e+03
1.53496451e+03
1.36777646e+03
1.87889118e+03
1.15349100e+03
2.01554011e+03
1.18295970e+03
1.86724088e+03
8.16370468e+02
0.00000000e+00
0.00000000e+00
1.29241126e+03
1.38525772e+03
1.96518894e+03
1.55575885e+03
2.12407557e+03
1.58830438e+03
1.28846029e+03
1.65252916e+03
1.05179662e+03
1.33317904e+03
1.16078316e+03
2.29328831e+03
2.18732760e+03
1.35922230e+03
1.03246333e+03
1.28978092e+03
1.68172035e+03
9.23113747e+02
8.12981209e+02
7.73339681e+02
0.00000000e+00
1.47421209e+03
1.23026641e+03
1.56498303e+03
1.99449688e+03
1.57947219e+03
1.45759711e+03
7.61512552e+02
7.39836803e+02
0.00000000e+00
0.00000000e+00
0.00000000e+00
0.00000000e+00
0.00000000e+00
9.55886556e+02
1.38940875e+03
1.18061831e+03
9.88466050e+02
9.05902080e+02
1.51276295e+03
0.00000000e+00
0.00000000e+00
2.20816872e+03
1.04998404e+03
1.57209484e+03
1.31898167e+03
1.62344165e+03
1.46699506e+03
1.22988842e+03
1.43140928e+03
1.02574721e+03
2.06383063e+03
1.26581893e+03
2.31368262e+03
1.15625133e+03
1.21597461e+03
1.11651592e+03
1.18433380e+03
1.32829966e+03
1.56852080e+03
2.36099736e+03
0.00000000e+00
0.00000000e+00
0.00000000e+00
1.02495890e+03
1.41425895e+03
1.25019273e+03
0.00000000e+00
0.00000000e+00
8.78802789e+02
0.00000000e+00
7.63107423e+02
8.63820748e+02
0.00000000e+00
8.91461675e+02
0.00000000e+00
9.20585877e+02
9.52298501e+02
9.60345697e+02
1.00100903e+03
0.00000000e+00
0.00000000e+00
8.46521909e+02
1.02055547e+03
0.00000000e+00
1.01775907e+03
0.00000000e+00
9.16628884e+02
0.00000000e+00
1.04698177e+03
1.16953818e+03
0.00000000e+00
1.16229659e+03
1.20849775e+03
1.52494698e+03
9.56222276e+02
0.00000000e+00
1.28922822e+03
4.99214887e+02
1.06924864e+03
1.02408937e+03
6.45685247e+02
0.00000000e+00
0.00000000e+00
0.00000000e+00
1.39400524e+03
1.47724337e+03
9.42643112e+02
1.31198607e+03
6.11141815e+02
1.25397414e+03
9.43700593e+02
2.35068497e+03
1.09096058e+03
1.33124113e+03
1.44724631e+03
9.78009649e+02
0.00000000e+00
9.34037092e+02
2.11637454e+03
2.27236414e+03
2.14137237e+03
1.50612708e+03
8.93759466e+02
0.00000000e+00
1.44685383e+03
1.09169741e+03
2.27609216e+03
2.48978391e+03
2.14803622e+03
2.24870138e+03
2.43335438e+03
1.13363971e+03
1.12054292e+03
2.07037405e+03
7.99466929e+02
1.53727154e+03
1.49959605e+03
1.48309911e+03
1.67330343e+03
2.43256451e+03
1.26338479e+03
1.29513272e+03
1.22112852e+03
1.79839090e+03
0.00000000e+00
1.41965032e+03
7.12468502e+02
1.35797491e+03
1.04084152e+03
1.44011776e+03
9.25944700e+02
1.96895988e+03
1.33962809e+03
1.45729394e+03
9.03541306e+02
9.79348686e+02
1.84995457e+03
2.06735376e+03
6.96925838e+02
2.24375970e+03
1.83510766e+03
1.73948232e+03
2.01119389e+03
1.54612592e+03
1.98163576e+03
0.00000000e+00
1.21440516e+03
1.38088257e+03
1.07055642e+03
1.19074166e+03
1.96776030e+03
2.22986410e+03
1.09689371e+03
1.78924834e+03
1.28954035e+03
1.46018033e+03
1.91835086e+03
4.60655032e+02
1.29904288e+03
2.45585904e+03
1.35595735e+03
1.31434328e+03
2.08468174e+03
1.21178862e+03
2.51165384e+03
2.14241947e+03
0.00000000e+00
0.00000000e+00
1.41087857e+03
1.24040510e+03
1.61498380e+03
2.46494200e+03
1.53134967e+03
1.50035744e+03
2.11221868e+03
1.05383232e+03
2.23025424e+03
7.90902956e+02
1.43114091e+03
5.88930699e+02
0.00000000e+00
2.36646476e+03
2.25262207e+03
1.86053714e+03
7.85048967e+02
2.05234109e+03
1.45283231e+03
0.00000000e+00
0.00000000e+00
1.59873360e+03
1.50101706e+03
1.58979107e+03
1.40784619e+03
1.30642984e+03
1.31332104e+03
1.77243663e+03
1.25287866e+03
2.44343171e+03
1.16667743e+03
1.21792641e+03
1.11796572e+03
1.11255736e+03
2.27910650e+03
1.36212762e+03
2.40472875e+03
2.47204123e+03
1.68784499e+03
1.23132562e+03
1.05164426e+03
0.00000000e+00
0.00000000e+00
2.35631801e+03
2.35015532e+03
2.25268665e+03
2.04155360e+03
9.61869968e+02
9.12113054e+02
1.29794076e+03
2.31390526e+03
2.53271344e+03
1.65834463e+03
2.19043486e+03
2.32636027e+03
2.46233187e+03
1.29424715e+03
2.47830488e+03
2.37463072e+03
2.37160169e+03
0.00000000e+00
0.00000000e+00
1.06561927e+03
7.83318294e+02
1.29394317e+03
1.37237727e+03
2.38349221e+03
1.84279766e+03
2.40356095e+03
1.53770456e+03
1.80631777e+03
1.38203062e+03
2.43726751e+03
1.68651090e+03
2.09546262e+03
7.95891774e+02
2.22773961e+03
1.21206107e+03
1.67367702e+03
1.92499833e+03
1.42850951e+03
1.09354932e+03
1.05449185e+03
0.00000000e+00
0.00000000e+00
2.32963865e+03
1.13812516e+03
2.31398364e+03
2.25870012e+03
2.45818157e+03
7.60238648e+02
1.26795488e+03
2.16820009e+03
1.38435810e+03
1.07428027e+03
1.90714224e+03
9.95125873e+02
1.98377918e+03
1.10323927e+03
1.53052493e+03
1.46405068e+03
1.10775935e+03
0.00000000e+00
1.23109052e+03
7.70860587e+02
0.00000000e+00
2.33137151e+03
1.28474564e+03
2.38665233e+03
1.20102116e+03
1.92364928e+03
1.48306822e+03
2.13122118e+03
2.35438934e+03
1.79728417e+03
2.40951849e+03
8.54118362e+02
2.15597668e+03
2.23753566e+03
1.20883907e+03
2.33411579e+03
1.28613182e+03
1.91292397e+03
1.18225385e+03
1.14592145e+03
0.00000000e+00
0.00000000e+00
2.12093071e+03
1.34605530e+03
2.16047212e+03
8.08677079e+02
1.64478069e+03
1.36287971e+03
2.35760278e+03
1.08833046e+03
1.44817443e+03
1.44946476e+03
1.53237502e+03
1.07818353e+03
1.61771277e+03
1.55629881e+03
1.83511608e+03
1.54006451e+03
1.55453128e+03
1.19786035e+03
1.07359772e+03
0.00000000e+00
5.88723073e+02
1.74294477e+03
1.42786838e+03
1.44408989e+03
1.22554874e+03
1.93306362e+03
2.43412847e+03
1.24513725e+03
2.40991697e+03
1.65801110e+03
2.41082501e+03
1.30805849e+03
2.49578379e+03
4.14876404e+02
1.85542167e+03
1.74080970e+03
1.45778219e+03
1.37581619e+03
1.06553543e+03
0.00000000e+00
0.00000000e+00
0.00000000e+00
2.08536828e+03
1.67453534e+03
1.90574268e+03
1.85885597e+03
1.84054964e+03
1.74414638e+03
1.95780477e+03
2.31947092e+03
1.37030148e+03
2.14115990e+03
2.20008201e+03
2.43447744e+03
1.10288753e+03
1.29089465e+03
1.73212832e+03
1.79397848e+03
1.24734407e+03
9.93452555e+02
8.57405073e+02
0.00000000e+00
2.38321097e+03
2.35726323e+03
2.10624226e+03
2.38605704e+03
2.41095405e+03
1.53304036e+03
1.04135267e+03
2.36246870e+03
2.19184205e+03
1.89906456e+03
2.42886008e+03
1.10181561e+03
1.06554336e+03
2.45579985e+03
2.38191218e+03
9.79906646e+02
1.94927633e+03
2.34074244e+03
1.11886570e+03
9.59236573e+02
0.00000000e+00
1.97748223e+03
2.25948499e+03
2.19298584e+03
1.95268562e+03
1.35688177e+03
2.44936614e+03
1.43764912e+03
2.19298058e+03
2.12074166e+03
1.18955357e+03
2.19246864e+03
1.99306657e+03
1.64276237e+03
1.96766734e+03
2.20572010e+03
2.02896751e+03
2.03775547e+03
1.49301334e+03
8.38094221e+02
8.22433730e+02
0.00000000e+00
2.32479429e+03
1.05076101e+03
1.76025800e+03
1.13297574e+03
1.19859383e+03
1.31959562e+03
1.62351574e+03
2.04410741e+03
2.30318109e+03
1.16795326e+03
1.66013360e+03
8.69635658e+02
1.26235895e+03
1.87836729e+03
8.29702296e+02
1.27876996e+03
2.44646033e+03
1.66507559e+03
1.48042653e+03
5.72518864e+02
0.00000000e+00
1.39294250e+03
2.09172936e+03
1.51762631e+03
1.13174935e+03
2.34901619e+03
2.36233002e+03
1.90732787e+03
1.54795603e+03
1.12087200e+03
1.28746270e+03
1.21383283e+03
1.11773497e+03
1.39446252e+03
1.84389231e+03
1.79684845e+03
2.40936043e+03
2.11619468e+03
1.82665580e+03
1.12021214e+03
7.28315778e+02
0.00000000e+00
1.48045706e+03
2.27051741e+03
2.22042986e+03
1.90975461e+03
1.63854794e+03
1.66928802e+03
2.28421148e+03
1.59484092e+03
1.98478993e+03
1.14092442e+03
1.91031145e+03
1.48191240e+03
1.54884765e+03
1.74261129e+03
2.38292099e+03
2.33374038e+03
2.07347119e+03
1.35299459e+03
1.81824781e+03
0.00000000e+00
0.00000000e+00
1.40536015e+03
1.35045481e+03
2.10302719e+03
2.04412832e+03
2.19636543e+03
1.68104602e+03
0.00000000e+00
0.00000000e+00
9.51371578e+02
8.84423223e+02
1.08772529e+03
1.00518902e+03
1.09388514e+03
1.53934197e+03
1.13029020e+03
1.58480704e+03
1.07247298e+03
2.28173266e+03
1.22541985e+03
8.23365318e+02
4.65054958e+02
0.00000000e+00
1.06683641e+03
1.31509324e+03
1.50553700e+03
0.00000000e+00
1.00928142e+03
0.00000000e+00
8.99172076e+02
0.00000000e+00
0.00000000e+00
9.63981179e+02
9.91493277e+02
9.63046489e+02
1.00441596e+03
9.38003428e+02
8.37889473e+02
8.86864969e+02
8.62140020e+02
9.72108292e+02
0.00000000e+00
0.00000000e+00
5.72395887e+02
0.00000000e+00
2.32749072e+03
1.06912467e+03
1.36570857e+03