# vtk DataFile Version 3.0
MPS 3D Simulation Step 1500
ASCII
DATASET UNSTRUCTURED_GRID
POINTS 20213 double
-1.03606853e-03 2.45168231e-04 -9.92292968e-04
-9.13088843e-04 2.44623736e-04 -1.10558841e-03
-8.67409699e-04 2.74582395e-04 -1.16502243e-03
-8.05447076e-04 2.77553152e-04 -1.21216993e-03
-7.28427446e-04 2.28697057e-04 -1.24916321e-03
-6.62634979e-04 2.10275186e-04 -1.27726541e-03
-4.58106371e-04 2.22508246e-04 -1.37528476e-03
-3.76924252e-04 1.93568396e-04 -1.38096510e-03
-2.18164080e-04 1.19023835e-04 -1.35399141e-03
-1.07638992e-04 1.16204960e-04 -1.30344679e-03
1.01820708e-04 1.32850820e-04 -1.39346876e-03
-6.14864841e-05 1.48870133e-04 -1.39753032e-03
2.63893749e-05 1.14036386e-04 -1.32880450e-03
1.87715871e-04 1.32985423e-04 -1.37771480e-03
3.68491925e-04 1.55002394e-04 -1.33476209e-03
6.62332198e-04 1.77516464e-04 -1.25403773e-03
6.11856216e-04 1.17763498e-04 -1.17071280e-03
7.88855784e-04 1.57208584e-04 -1.18250338e-03
8.78857103e-04 1.71004810e-04 -1.12102442e-03
9.39501929e-04 1.74467747e-04 -1.06886076e-03
1.04357074e-03 2.11920499e-04 -9.88323369e-04
-9.70598868e-04 2.39095803e-04 -1.04759221e-03
-9.39772908e-04 3.30656124e-04 -1.11463994e-03
-8.87001215e-04 3.45025684e-04 -1.16743214e-03
-7.22945128e-04 2.95782797e-04 -1.27362319e-03
-6.27706379e-04 3.80711668e-04 -1.33519220e-03
-6.49428805e-04 3.02719596e-04 -1.31401814e-03
-6.02228895e-04 2.38159008e-04 -1.31879641e-03
-4.35409986e-04 2.82507402e-04 -1.40327314e-03
-2.78469771e-04 2.05511461e-04 -1.40922970e-03
-1.41154058e-04 1.50888822e-04 -1.39451355e-03
1.92007890e-05 1.55938533e-04 -1.41018547e-03
2.69560205e-04 1.81403599e-04 -1.39015576e-03
4.52302173e-04 1.42834940e-04 -1.29418805e-03
4.26697019e-04 2.01049956e-04 -1.34730289e-03
5.20114513e-04 1.85547025e-04 -1.30015632e-03
5.88956009e-04 2.37679974e-04 -1.30509386e-03
6.83649465e-04 2.41443645e-04 -1.27686596e-03
7.07195970e-04 1.36208217e-04 -1.20405734e-03
7.47834592e-04 2.13632652e-04 -1.23322567e-03
8.31266190e-04 2.12301035e-04 -1.18832914e-03
9.98558732e-04 2.21281167e-04 -1.04618336e-03
-9.94199061e-04 3.17715323e-04 -1.05895544e-03
-9.68282345e-04 4.05478223e-04 -1.09689250e-03
-9.02582767e-04 4.27009441e-04 -1.14995962e-03
-7.85186939e-04 3.45500994e-04 -1.24094597e-03
-7.12773314e-04 3.71341648e-04 -1.28870715e-03
-5.68699996e-04 3.14458714e-04 -1.35846555e-03
-4.89640547e-04 3.37687423e-04 -1.39608486e-03
-5.26449405e-04 2.51960061e-04 -1.35746107e-03
-3.79713522e-04 3.28716540e-04 -1.43316217e-03
-2.41241285e-04 2.69835328e-04 -1.44475099e-03
-7.22081869e-05 2.98154873e-04 -1.46387429e-03
2.59495894e-04 2.51924699e-04 -1.42097605e-03
3.30162479e-04 2.98624268e-04 -1.41659626e-03
4.92917761e-04 2.50113251e-04 -1.34157651e-03
3.94913912e-04 2.62385471e-04 -1.38581089e-03
6.37635453e-04 3.00088041e-04 -1.30941819e-03
6.68114930e-04 3.73257998e-04 -1.30628093e-03
7.16940990e-04 3.14131460e-04 -1.28044588e-03
7.89782584e-04 2.78952283e-04 -1.23709908e-03
8.89092237e-04 2.51899410e-04 -1.16441089e-03
9.38472578e-04 2.32730621e-04 -1.11323299e-03
-1.08686860e-03 4.03322052e-04 -9.79194951e-04
-1.02702330e-03 4.02263531e-04 -1.03830102e-03
-8.41322746e-04 3.90155809e-04 -1.20267877e-03
-6.82634162e-04 4.35946687e-04 -1.30344824e-03
-5.91250793e-04 4.51469411e-04 -1.34675019e-03
-5.44347253e-04 3.91180358e-04 -1.37526085e-03
-4.13589666e-04 3.86696900e-04 -1.42915083e-03
-3.02531651e-04 3.17329610e-04 -1.44668240e-03
-2.15315889e-04 3.45442116e-04 -1.46776165e-03
-1.57099858e-04 2.92339442e-04 -1.46166181e-03
1.34553550e-05 3.06581332e-04 -1.46348221e-03
1.05804359e-04 2.01223493e-04 -1.42614910e-03
1.77355972e-04 2.78884194e-04 -1.44106377e-03
2.58489532e-04 3.30672494e-04 -1.44063020e-03
3.77609769e-04 3.56681901e-04 -1.41324881e-03
5.54257607e-04 3.08472214e-04 -1.33885418e-03
5.84985760e-04 3.79149260e-04 -1.34002081e-03
7.82977818e-04 3.47816120e-04 -1.25282444e-03
8.55471055e-04 3.10727045e-04 -1.20051192e-03
9.41593346e-04 3.15785273e-04 -1.13889977e-03
1.01967910e-03 3.73320046e-04 -1.07686877e-03
-1.07281440e-03 4.83054854e-04 -9.84671883e-04
-8.33093817e-04 4.70257482e-04 -1.19683577e-03
-7.70828420e-04 4.26495490e-04 -1.24899658e-03
-6.16895023e-04 5.17378062e-04 -1.31471882e-03
-5.17952456e-04 4.83609879e-04 -1.37159624e-03
-4.71713944e-04 4.27195454e-04 -1.40146153e-03
-3.07656803e-04 3.97034904e-04 -1.45004130e-03
-2.32692363e-04 4.18944693e-04 -1.46694488e-03
-1.35334202e-04 3.76977751e-04 -1.47743563e-03
-5.34402610e-05 3.75658603e-04 -1.47873413e-03
2.55092285e-05 3.87832970e-04 -1.47463581e-03
9.62344730e-05 2.81859143e-04 -1.45106506e-03
1.84125224e-04 3.66023330e-04 -1.45731661e-03
2.94313835e-04 4.93554631e-04 -1.43336192e-03
2.63893080e-04 4.09611296e-04 -1.44602225e-03
4.51282920e-04 3.12993083e-04 -1.37846122e-03
5.05857839e-04 3.73868321e-04 -1.36945644e-03
7.32447089e-04 4.15056024e-04 -1.27290467e-03
8.18603383e-04 4.08935313e-04 -1.22774756e-03
8.87241846e-04 3.78696823e-04 -1.18448726e-03
9.61858777e-04 3.89368751e-04 -1.12887674e-03
-1.03746854e-03 5.59431620e-04 -9.86394664e-04
-9.62600510e-04 4.79895503e-04 -1.09136737e-03
-7.64877884e-04 5.07315486e-04 -1.23432028e-03
-6.98236685e-04 5.00893547e-04 -1.27778197e-03
-5.38146445e-04 5.54621963e-04 -1.34008085e-03
-3.45345515e-04 5.37233884e-04 -1.41331247e-03
-3.71613953e-04 4.51848729e-04 -1.43010917e-03
-2.88671965e-04 4.82901988e-04 -1.44337417e-03
-1.56577186e-04 4.49269419e-04 -1.47606747e-03
-7.93861717e-05 4.53558038e-04 -1.47773312e-03
5.36260818e-06 4.65072833e-04 -1.47214894e-03
1.03607274e-04 3.56475652e-04 -1.46588832e-03
1.89086341e-04 4.47745639e-04 -1.45696002e-03
3.89998604e-04 4.79740125e-04 -1.40622241e-03
3.39947756e-04 4.22429374e-04 -1.42765018e-03
4.71032293e-04 4.80945306e-04 -1.37206608e-03
5.47680997e-04 4.54508625e-04 -1.34680745e-03
6.32421850e-04 4.42956764e-04 -1.31676231e-03
7.77540669e-04 4.83304010e-04 -1.23759125e-03
9.17801620e-04 4.51358427e-04 -1.15366324e-03
9.98319675e-04 4.59010836e-04 -1.08776063e-03
-9.77581239e-04 6.03744680e-04 -1.01591858e-03
-1.01594297e-03 4.88625827e-04 -1.03839211e-03
-8.19614915e-04 5.47480537e-04 -1.18050269e-03
-6.60773245e-04 5.72083234e-04 -1.27067811e-03
-5.85777527e-04 6.06101907e-04 -1.29369989e-03
-4.56867298e-04 5.68655811e-04 -1.36828821e-03
-2.59254317e-04 5.64091667e-04 -1.42178255e-03
-2.07694167e-04 5.03182966e-04 -1.45584026e-03
-1.28074740e-04 5.32487380e-04 -1.45736667e-03
-4.99081247e-05 5.28856437e-04 -1.46240163e-03
7.12586590e-05 5.06533469e-04 -1.46327180e-03
1.06144500e-04 4.37806655e-04 -1.46703807e-03
2.19134851e-04 5.20153095e-04 -1.44465427e-03
3.54515819e-04 5.49138726e-04 -1.40532576e-03
4.33659895e-04 5.56014054e-04 -1.36933298e-03
6.04330556e-04 5.15100989e-04 -1.31041850e-03
6.53293471e-04 5.64498196e-04 -1.26914479e-03
6.94842894e-04 4.89986697e-04 -1.27539286e-03
7.32445392e-04 5.52253098e-04 -1.23589220e-03
9.47218358e-04 5.17940760e-04 -1.10966239e-03
9.34746593e-04 5.99376795e-04 -1.07992006e-03
-1.02521534e-03 6.38186641e-04 -9.53117850e-04
-9.45903818e-04 5.53504316e-04 -1.07242948e-03
-8.94502568e-04 5.03547174e-04 -1.13986376e-03
-7.38104292e-04 5.79856154e-04 -1.21799731e-03
-5.03534189e-04 6.26446671e-04 -1.32476529e-03
-3.86698950e-04 5.95633883e-04 -1.38006291e-03
-3.13734443e-04 6.23604353e-04 -1.38499950e-03
-1.73222523e-04 5.91897944e-04 -1.42652898e-03
-8.40086337e-05 6.05446583e-04 -1.43458491e-03
1.99821779e-05 5.71690473e-04 -1.44847846e-03
9.48103979e-05 6.07973384e-04 -1.43511726e-03
1.37262973e-04 5.38501089e-04 -1.45310606e-03
2.78565321e-04 5.80871596e-04 -1.41596721e-03
3.45486521e-04 6.24439782e-04 -1.38276477e-03
4.16863540e-04 6.36772779e-04 -1.35068653e-03
5.32024508e-04 5.37962272e-04 -1.33396658e-03
5.78840729e-04 6.06349033e-04 -1.28245189e-03
7.42178655e-04 6.20041029e-04 -1.19461179e-03
8.50605552e-04 4.77858572e-04 -1.19476297e-03
8.80147397e-04 5.39454165e-04 -1.15358621e-03
9.92529612e-04 6.27956724e-04 -1.01343066e-03
-9.48219717e-04 6.83193732e-04 -9.92814197e-04
-9.07078465e-04 6.36729223e-04 -1.05777971e-03
-8.75298256e-04 5.80698307e-04 -1.11943795e-03
-6.64979978e-04 6.37628763e-04 -1.23247972e-03
-5.70346888e-04 6.75201246e-04 -1.26703545e-03
-4.26894768e-04 6.55640254e-04 -1.33991246e-03
-3.47644784e-04 6.91366580e-04 -1.34452692e-03
-2.36850365e-04 6.47345106e-04 -1.38993450e-03
-1.48056029e-04 6.65061387e-04 -1.39854027e-03
-1.21382299e-05 6.43751470e-04 -1.42459132e-03
5.76098309e-05 6.76544016e-04 -1.40907832e-03
1.88918703e-04 5.94056584e-04 -1.43051728e-03
2.22804090e-04 6.55513774e-04 -1.40007481e-03
2.90346487e-04 6.76503407e-04 -1.37443483e-03
3.60753220e-04 7.05567820e-04 -1.33740286e-03
4.94916678e-04 6.07139545e-04 -1.32653409e-03
5.26740681e-04 6.75552018e-04 -1.28321549e-03
6.58948360e-04 6.34794997e-04 -1.23021072e-03
8.04970555e-04 5.54897469e-04 -1.19299525e-03
8.73447359e-04 6.10371969e-04 -1.12267915e-03
9.25566072e-04 6.75728996e-04 -1.03554114e-03
-9.98229828e-04 7.13125798e-04 -9.22935345e-04
-8.83081506e-04 7.17051759e-04 -1.02529367e-03
-8.00469100e-04 6.15986465e-04 -1.15522850e-03
-7.26321276e-04 6.57158903e-04 -1.18059068e-03
-6.26235438e-04 7.06171197e-04 -1.21156977e-03
-4.91037306e-04 7.00313023e-04 -1.29107517e-03
-4.09021597e-04 7.30710332e-04 -1.30611275e-03
-2.58154040e-04 7.13786169e-04 -1.35570100e-03
-1.63514430e-04 7.32511690e-04 -1.35909519e-03
-6.97181762e-05 6.89721735e-04 -1.39903263e-03
9.15555970e-07 7.28516169e-04 -1.38237322e-03
1.34193105e-04 6.73368091e-04 -1.40402991e-03
1.90284404e-04 7.24104224e-04 -1.36654095e-03
2.65662700e-04 7.45669031e-04 -1.33760156e-03
3.32250524e-04 7.80835277e-04 -1.30050106e-03
4.50648101e-04 6.95231418e-04 -1.31027403e-03
5.04315335e-04 7.46110646e-04 -1.26000291e-03
5.98713746e-04 6.89256947e-04 -1.23786512e-03
7.01919140e-04 6.85379722e-04 -1.17892478e-03
8.58459884e-04 6.83902636e-04 -1.07927836e-03
9.60098178e-04 7.21777433e-04 -9.67338340e-04
-9.30509880e-04 7.57780114e-04 -9.54195644e-04
-8.60257599e-04 7.88183784e-04 -9.88752731e-04
[...]
POINT_DATA 20213
SCALARS pressure double 1
LOOKUP_TABLE default
0.00000000e+00
0.00000000e+00
0.00000000e+00
0.00000000e+00
0.00000000e+00
0.00000000e+00
0.00000000e+00
0.00000000e+00
5.73562629e+02
6.19839928e+02
4.09443339e+02
0.00000000e+00
4.91798652e+02
0.00000000e+00
6.05538229e+02
0.00000000e+00
6.03515528e+02
0.00000000e+00
0.00000000e+00
7.93766035e+02
9.69837271e+02
0.00000000e+00
0.00000000e+00
0.00000000e+00
0.00000000e+00
0.00000000e+00
0.00000000e+00
0.00000000e+00
0.00000000e+00
6.92897198e+02
5.75023084e+02
0.00000000e+00
0.00000000e+00
6.47138424e+02
7.76626576e+02
0.00000000e+00
0.00000000e+00
0.00000000e+00
0.00000000e+00
0.00000000e+00
0.00000000e+00
0.00000000e+00
0.00000000e+00
0.00000000e+00
0.00000000e+00
0.00000000e+00
0.00000000e+00
0.00000000e+00
0.00000000e+00
0.00000000e+00
7.54313319e+02
0.00000000e+00
8.43064269e+02
0.00000000e+00
0.00000000e+00
8.58373626e+02
0.00000000e+00
1.08929038e+03
1.27380647e+03
1.21867176e+03
9.81211932e+02
0.00000000e+00
0.00000000e+00
0.00000000e+00
0.00000000e+00
0.00000000e+00
0.00000000e+00
0.00000000e+00
0.00000000e+00
0.00000000e+00
0.00000000e+00
7.85591172e+02
9.57904435e+02
0.00000000e+00
0.00000000e+00
0.00000000e+00
0.00000000e+00
1.03030420e+03
9.44213990e+02
1.09474881e+03
1.32015830e+03
1.03771521e+03
8.81344686e+02
9.08255160e+02
0.00000000e+00
0.00000000e+00
0.00000000e+00
0.00000000e+00
0.00000000e+00
0.00000000e+00
6.69162627e+02
0.00000000e+00
9.10328431e+02
0.00000000e+00
0.00000000e+00
0.00000000e+00
7.06664250e+02
1.13736319e+03
1.09412705e+03
9.78635222e+02
0.00000000e+00
1.35810813e+03
1.19349313e+03
9.51306660e+02
0.00000000e+00
0.00000000e+00
0.00000000e+00
0.00000000e+00
0.00000000e+00
0.00000000e+00
0.00000000e+00
0.00000000e+00
5.74616957e+02
0.00000000e+00
0.00000000e+00
0.00000000e+00
0.00000000e+00
1.08527237e+03
0.00000000e+00
1.02875673e+03
1.04767736e+03
0.00000000e+00
1.19079330e+03
0.00000000e+00
0.00000000e+00
0.00000000e+00
0.00000000e+00
0.00000000e+00
0.00000000e+00
0.00000000e+00
0.00000000e+00
0.00000000e+00
0.00000000e+00
0.00000000e+00
0.00000000e+00
4.66505518e+02
0.00000000e+00
0.00000000e+00
1.25239983e+03
0.00000000e+00
0.00000000e+00
1.18143474e+03
0.00000000e+00
1.22340783e+03
0.00000000e+00
0.00000000e+00
0.00000000e+00
0.00000000e+00
0.00000000e+00
0.00000000e+00
0.00000000e+00
0.00000000e+00
0.00000000e+00
5.95894876e+02
5.79753147e+02
0.00000000e+00
0.00000000e+00
0.00000000e+00
1.03107923e+03
1.10556941e+03
1.05784413e+03
1.13869602e+03
1.11858821e+03
1.21390982e+03
6.73020859e+02
0.00000000e+00
0.00000000e+00
0.00000000e+00
0.00000000e+00
0.00000000e+00
0.00000000e+00
0.00000000e+00
0.00000000e+00
0.00000000e+00
8.17491806e+02
0.00000000e+00
0.00000000e+00
7.51833046e+02
8.50411267e+02
0.00000000e+00
0.00000000e+00
1.06423821e+03
1.12655300e+03
1.18045320e+03
1.22244377e+03
1.00943331e+03
0.00000000e+00
0.00000000e+00
0.00000000e+00
0.00000000e+00
0.00000000e+00
0.00000000e+00
0.00000000e+00
0.00000000e+00
7.27985862e+02
1.03172629e+03
0.00000000e+00
6.84067800e+02
0.00000000e+00
0.00000000e+00
1.00354558e+03
1.12609747e+03
1.12396185e+03
0.00000000e+00
1.08957570e+03
1.08964972e+03
1.21765709e+03
0.00000000e+00
0.00000000e+00
0.00000000e+00
0.00000000e+00
5.13388274e+02
0.00000000e+00
9.40108107e+02
9.27967102e+02
1.22428201e+03
1.00170899e+03
0.00000000e+00
0.00000000e+00
0.00000000e+00
9.67680585e+02
0.00000000e+00
0.00000000e+00
1.00949534e+03
0.00000000e+00
0.00000000e+00
0.00000000e+00
1.18730872e+03
1.09624127e+03
0.00000000e+00
0.00000000e+00
0.00000000e+00
0.00000000e+00
1.01587901e+03
1.25611154e+03
1.19184368e+03
1.34383311e+03
1.27110870e+03
9.77183066e+02
0.00000000e+00
0.00000000e+00
0.00000000e+00
0.00000000e+00
9.63734121e+02
9.25085025e+02
0.00000000e+00
0.00000000e+00
1.10272694e+03
1.04062332e+03
8.34952162e+02
0.00000000e+00
0.00000000e+00
0.00000000e+00
0.00000000e+00
0.00000000e+00
1.15355108e+03
1.27739557e+03
1.18842493e+03
1.12185541e+03
9.15033276e+02
8.51388046e+02
0.00000000e+00
0.00000000e+00
9.26806474e+02
9.09535142e+02
0.00000000e+00
9.94746962e+02
1.18373060e+03
1.14413566e+03
1.09248509e+03
6.37236567e+02
4.53129554e+02
0.00000000e+00
0.00000000e+00
6.41695885e+02
0.00000000e+00
0.00000000e+00
1.26474077e+03
1.03332036e+03
0.00000000e+00
0.00000000e+00
8.34410790e+02
8.03585902e+02
7.80457908e+02
9.09086479e+02
9.32262411e+02
9.18339871e+02
9.96971997e+02
9.97582027e+02
1.08686093e+03
8.87328793e+02
6.16845141e+02
0.00000000e+00
0.00000000e+00
0.00000000e+00
0.00000000e+00
8.01372801e+02
0.00000000e+00
1.07986965e+03
1.01593684e+03
0.00000000e+00
7.30009359e+02
8.73701865e+02
7.77145252e+02
7.47956391e+02
0.00000000e+00
0.00000000e+00
8.78736293e+02
0.00000000e+00
1.06028804e+03
1.13680823e+03
8.16411385e+02
0.00000000e+00
0.00000000e+00
0.00000000e+00
0.00000000e+00
0.00000000e+00
7.50216903e+02
8.29346503e+02
8.93912359e+02
0.00000000e+00
6.52723752e+02
7.22595107e+02
0.00000000e+00
0.00000000e+00
0.00000000e+00
7.98920733e+02
7.70549133e+02
8.23747579e+02
0.00000000e+00
8.69756891e+02
9.13403092e+02
0.00000000e+00
0.00000000e+00
0.00000000e+00
0.00000000e+00
0.00000000e+00
6.18144748e+02
7.30187913e+02
7.96897512e+02
0.00000000e+00
0.00000000e+00
0.00000000e+00
0.00000000e+00
6.87139961e+02
0.00000000e+00
7.82409005e+02
6.77315892e+02
7.13288489e+02
0.00000000e+00
0.00000000e+00
0.00000000e+00
0.00000000e+00
0.00000000e+00
0.00000000e+00
0.00000000e+00
6.13316247e+02
0.00000000e+00
0.00000000e+00
0.00000000e+00
0.00000000e+00
4.76762094e+02
0.00000000e+00
0.00000000e+00
0.00000000e+00
6.85136228e+02
6.72753506e+02
6.60891613e+02
0.00000000e+00
0.00000000e+00
0.00000000e+00
6.94804309e+02
8.44622156e+02
7.48823723e+02
7.05000599e+02
0.00000000e+00
7.25595276e+02
6.91564235e+02
0.00000000e+00
0.00000000e+00
0.00000000e+00
0.00000000e+00
0.00000000e+00
0.00000000e+00
0.00000000e+00
0.00000000e+00
0.00000000e+00
0.00000000e+00
6.01324823e+02
6.17424457e+02
0.00000000e+00
0.00000000e+00
0.00000000e+00
0.00000000e+00
8.61376036e+02
0.00000000e+00
0.00000000e+00
8.27343528e+02
7.67559700e+02
0.00000000e+00
7.97739069e+02
0.00000000e+00
0.00000000e+00
0.00000000e+00
0.00000000e+00
0.00000000e+00
0.00000000e+00
0.00000000e+00
0.00000000e+00
0.00000000e+00
0.00000000e+00
0.00000000e+00
0.00000000e+00
0.00000000e+00
7.83939181e+02
8.18328193e+02
8.18400629e+02
8.72235993e+02
1.00052182e+03
9.54508732e+02
1.09472506e+03
7.87262971e+02
0.00000000e+00
0.00000000e+00
0.00000000e+00
0.00000000e+00
0.00000000e+00
0.00000000e+00
0.00000000e+00
0.00000000e+00
0.00000000e+00
0.00000000e+00
7.47442968e+02
0.00000000e+00
0.00000000e+00
0.00000000e+00
0.00000000e+00
9.25065049e+02
1.02406840e+03
9.65509370e+02
0.00000000e+00
5.76737896e+02
0.00000000e+00
0.00000000e+00
0.00000000e+00
0.00000000e+00
0.00000000e+00
0.00000000e+00
0.00000000e+00
6.14587997e+02
7.26727314e+02
7.20306443e+02
5.10346801e+02
6.45232658e+02
6.20570277e+02
7.03130962e+02
6.62922279e+02
5.78444862e+02
8.71565113e+02
7.57458019e+02
8.11487901e+02
0.00000000e+00
0.00000000e+00
9.81750380e+02
5.94338219e+02
3.42961892e+02
2.03971098e+02
4.45136434e+02
5.98280869e+02
9.86484746e+02
7.97920368e+02
6.55622372e+02
8.79719894e+02
9.07224901e+02
1.01985630e+03
8.82840965e+02
1.19937474e+03
1.24409395e+03
1.14999404e+03
1.08022147e+03
1.08503559e+03
1.13474593e+03
1.16707927e+03
0.00000000e+00
4.57554571e+02
2.84787269e+02
4.28154986e+02
1.02529237e+03
4.12786280e+02
2.22913507e+02
0.00000000e+00
7.12561467e+02
6.77480805e+02
6.70302797e+02
0.00000000e+00
0.00000000e+00
0.00000000e+00
1.32125291e+03
1.21443297e+03
1.24168659e+03
9.78741691e+02
1.13543992e+03
1.34015004e+03
9.74211133e+02
0.00000000e+00
3.07853793e+02
4.79406349e+02
6.07092611e+02
2.91992675e+02
1.16264036e+03
4.25085903e+02
8.35936769e+02
1.10077277e+03
1.05447406e+03
1.15438826e+03
9.64254787e+02
9.04767712e+02
8.96796162e+02
1.13903610e+03
1.17890914e+03
1.24601926e+03
1.41122705e+03
9.35562864e+02
9.92924093e+02
9.54377075e+02
0.00000000e+00
4.73853034e+02
1.14999995e+03
1.42659216e+02
6.51338448e+02
5.45648621e+02
1.41930249e+03
8.56362997e+02
8.81695920e+02
8.36847682e+02
7.73661711e+02
1.23997179e+03
1.08575438e+03
1.09048931e+03
1.31946531e+03
1.29610797e+03
1.31989929e+03
1.27005743e+03
1.08214314e+03
1.25869095e+03
0.00000000e+00
0.00000000e+00
7.92944687e+02
2.64864441e+02
2.97080021e+02
1.80254258e+02
0.00000000e+00
8.77189394e+02
6.34531702e+02
8.05349104e+02
8.13606617e+02
9.39554264e+02
1.11568218e+03
1.18135875e+03
1.15840602e+03
1.35546234e+03
1.13571776e+03
1.27682083e+03
1.03320769e+03
8.24657121e+02
1.01549288e+03
0.00000000e+00
0.00000000e+00
4.26094961e+02
3.62192084e+02
2.98186189e+02
1.10625680e+03
3.44620473e+02
8.31296590e+02
8.39609550e+02
6.56944974e+02
1.12621081e+03
9.83612200e+02
1.22532318e+03
1.20078907e+03
1.24955150e+03
1.27416020e+03
1.21642793e+03
1.08492604e+03
1.01516251e+03
7.38560186e+02
6.30036630e+02
0.00000000e+00
0.00000000e+00
4.17558119e+02
0.00000000e+00
6.05212744e+02
5.98007734e+02
5.65510630e+02
8.65617859e+02
1.06726254e+03
1.23810586e+03
8.72489719e+02
9.64654472e+02
1.15719653e+03
1.28894689e+03
1.26607978e+03
1.26220170e+03
1.24678366e+03
8.94857748e+02
6.46519512e+02
0.00000000e+00
8.11441290e+02
0.00000000e+00
0.00000000e+00
8.53313796e+02
0.00000000e+00
8.72109280e+02
8.80456411e+02
7.21186600e+02
1.05369040e+03
1.23767589e+03
1.59256810e+03
1.33327635e+03
1.40859847e+03
1.19007715e+03
1.41193754e+03
1.33631147e+03
1.28014193e+03
1.28554011e+03
1.31399198e+03
1.31086132e+03
0.00000000e+00
1.25230946e+03
0.00000000e+00
0.00000000e+00
5.89448767e+02
0.00000000e+00
8.44559742e+02
9.55315306e+02
1.04164722e+03
1.10998495e+03
8.61039223e+02
1.21933301e+03
8.75545035e+02
9.27317557e+02
1.12247718e+03
1.34299941e+03
1.25364775e+03
1.25363549e+03
1.21811707e+03
1.12571618e+03
8.97800870e+02
0.00000000e+00
8.16102125e+02
0.00000000e+00
0.00000000e+00
9.58690920e+02
7.38219579e+02
1.11469351e+03
1.06657235e+03
1.28047705e+03
1.24744163e+03
9.55057915e+02
1.29034487e+03
1.16924362e+03
1.21822430e+03
1.33004795e+03
1.44893008e+03
1.35443873e+03
1.13544445e+03
1.28576888e+03
1.03687125e+03
1.45727476e+03
7.19145103e+02
1.26410118e+03
0.00000000e+00
0.00000000e+00
6.52254712e+02
9.41577871e+02
1.00182276e+03
1.20835654e+03
1.30976883e+03
1.21805824e+03
9.00672580e+02
1.27103583e+03
1.11679103e+03
1.32546599e+03
1.15428496e+03
1.31289720e+03
1.20318194e+03
1.27354854e+03
1.21170091e+03
1.23543331e+03
8.14438229e+02
0.00000000e+00
8.02696497e+02
0.00000000e+00
0.00000000e+00
1.06027783e+03
6.97343834e+02
1.09533354e+03
1.23929606e+03
1.27149277e+03
1.20603387e+03
1.39790092e+03
1.32462612e+03
1.16686310e+03
1.18453387e+03
1.29840320e+03
1.40263877e+03
1.39307413e+03
1.22852361e+03
1.24225911e+03
1.16451010e+03
1.06349329e+03
0.00000000e+00
1.12529216e+03
4.87153168e+02
0.00000000e+00
6.58072096e+02
9.24016381e+02
1.02486178e+03
1.09023876e+03
1.19021825e+03
1.12897749e+03
1.03301810e+03
1.11475562e+03
8.97005852e+02
9.65132232e+02
1.08827409e+03
1.16040633e+03
1.15456939e+03
1.16308076e+03
1.08544748e+03
1.08730789e+03
8.60424737e+02
0.00000000e+00
7.68285823e+02
0.00000000e+00
0.00000000e+00
5.63018848e+02
7.44287821e+02
9.03908660e+02
1.13043798e+03
1.03890176e+03
1.06057666e+03
1.00221818e+03
9.71609607e+02
9.53887953e+02
1.07138836e+03
9.95675629e+02
1.05943017e+03
1.13584067e+03
1.15741766e+03
9.88398662e+02
1.13531627e+03
8.70999796e+02
8.05471553e+02
7.48336868e+02
0.00000000e+00
0.00000000e+00
6.63119542e+02
8.21017050e+02
8.86996146e+02
9.99638911e+02
7.91788305e+02
6.13859375e+02
8.40620450e+02
8.86253904e+02
9.24124407e+02
9.27979780e+02
9.79634872e+02
9.80413217e+02
1.06576665e+03
9.35930765e+02
0.00000000e+00
1.04784205e+03
8.58417640e+02
8.53211682e+02
8.02081544e+02
0.00000000e+00
0.00000000e+00
8.53597205e+02
1.13259801e+03
7.64497158e+02
1.00093619e+03
7.31338836e+02
1.07881902e+03
8.25455356e+02
9.88573393e+02
8.92319197e+02
8.47695615e+02
9.15856027e+02
1.05019469e+03
8.79331459e+02
1.09016399e+03
1.00359821e+03
1.21084894e+03
8.82353217e+02
1.09544156e+03
9.23593663e+02
0.00000000e+00
0.00000000e+00
1.01246975e+03
8.22292441e+02
9.32361003e+02
6.25083352e+02
4.86589715e+02
7.14162828e+02
6.95591905e+02
9.11277678e+02
8.12514686e+02
9.97796043e+02
7.75887452e+02
1.02188374e+03
8.29324830e+02
8.94800117e+02
9.71771654e+02
9.65573760e+02
1.09767663e+03
8.94756939e+02
9.84039047e+02
0.00000000e+00
7.28791225e+02
1.10147702e+03
8.56988033e+02
6.54826360e+02
8.92531225e+02
4.90764646e+02
4.69474057e+02
0.00000000e+00
0.00000000e+00
0.00000000e+00
5.03101958e+02
5.81035520e+02
0.00000000e+00
5.07010101e+02
9.41206363e+02
1.00177532e+03
1.13775760e+03
9.69801181e+02
1.07762977e+03
9.84198281e+02
0.00000000e+00
8.24017967e+02
1.09894655e+03
9.11173502e+02
6.41063170e+02
5.60263981e+02
4.79756104e+02
5.34614838e+02
5.53875807e+02
8.27628345e+02
6.59478207e+02
9.59550201e+02
7.29699478e+02
9.89220056e+02
8.08862868e+02
8.01930621e+02
9.26093106e+02
1.03282838e+03
1.05283539e+03
1.06057298e+03
1.16249700e+03
7.43235657e+02
1.10086444e+03
9.94871444e+02
7.30818056e+02
0.00000000e+00
0.00000000e+00
0.00000000e+00
5.32591155e+02
0.00000000e+00
5.31474010e+02
0.00000000e+00
5.95619907e+02
6.36857977e+02
0.00000000e+00
0.00000000e+00
0.00000000e+00
9.61845720e+02
1.09518943e+03
1.00303066e+03
0.00000000e+00
9.41469353e+02
0.00000000e+00
5.89788980e+02
0.00000000e+00
0.00000000e+00
0.00000000e+00
2.84113530e+02
0.00000000e+00
2.27813029e+02
0.00000000e+00
3.01193466e+02
3.62993016e+02
5.66468331e+02
5.96313537e+02
9.19413931e+02
0.00000000e+00
6.19645403e+02
7.15692834e+02
8.48171612e+02
9.18696352e+02
8.65864254e+02
1.09309132e+03
1.58718582e+03
0.00000000e+00
6.11607761e+02
6.84705018e+02
4.70787111e+02
7.83236948e+02
2.49652090e+02
3.38584436e+02
5.31329338e+02
7.87440683e+02
4.17316188e+02
6.75441151e+02
4.69384248e+02
6.91257079e+02
4.80991676e+02
1.09897511e+03
1.12550819e+03
1.01780703e+03
1.15567224e+03
1.14036163e+03
1.46757751e+03
0.00000000e+00
6.29570253e+02
7.81206565e+02
1.17719308e+03
5.79659271e+02
9.38730878e+02
1.20271560e+03
5.71010776e+02
9.21167714e+02
9.19814493e+02
1.16296168e+03
9.34085423e+02
8.68927189e+02
9.26955195e+02
1.05747410e+03
1.25265155e+03
1.18424417e+03
1.48968566e+03
1.29042911e+03
1.64178868e+03
1.50204452e+03
0.00000000e+00
0.00000000e+00
5.66677141e+02
1.14305872e+03
1.48526377e+03
1.45273405e+03
9.42897951e+02
1.22694723e+03
1.12790669e+03
8.25652087e+02
8.77839371e+02
7.61759358e+02
7.42351719e+02
9.55582533e+02
1.26542114e+03
1.23292930e+03
1.21531062e+03
1.01913400e+03
1.22880694e+03
1.48201898e+03
1.35476914e+03
1.05295669e+03
8.26931175e+02
1.11961630e+03
1.45161459e+03
1.50272457e+03
1.50022111e+03
1.28157804e+03
1.33599536e+03
9.52593217e+02
1.16032026e+03
1.01164537e+03
1.16928530e+03
1.10124874e+03
9.82135706e+02
1.31343819e+03
1.13392710e+03
1.11846701e+03
1.59309899e+03
1.34214794e+03
1.78153943e+03
1.45068393e+03
0.00000000e+00
0.00000000e+00
2.89129648e+02
8.81488858e+02
6.11420968e+02
1.64755459e+03
1.37904317e+03
1.38626012e+03
1.43813712e+03
1.45820186e+03
1.46714827e+03
1.10861934e+03
1.38884795e+03
1.11292810e+03
1.35095164e+03
1.42670294e+03
1.17508798e+03
1.62566587e+03
1.26043921e+03
1.41464901e+03
1.40204231e+03
1.23302100e+03
8.46053276e+02
5.41927038e+02
1.19597826e+03
1.00890995e+03
1.73127627e+03
7.40443428e+02
1.87430540e+02
8.47184173e+02
1.63446324e+03
9.59225198e+02
1.23747495e+03
1.38904283e+03
1.36089344e+03
1.28687406e+03
1.31608546e+03
1.30178122e+03
1.61917823e+03
1.20675630e+03
1.39863661e+03
1.19616024e+03
1.13482661e+03
5.90161512e+02
0.00000000e+00
7.34523814e+02
1.27964511e+03
9.27020840e+02
1.05091297e+03
3.93588496e+02
1.26279637e+03
1.03583255e+03
1.49656912e+03
1.03819322e+03
1.57871010e+03
1.44936166e+03
1.32421890e+03
1.31591213e+03
1.36305859e+03
1.27878693e+03
1.46807429e+03
1.43032915e+03
0.00000000e+00
1.05014958e+03
7.62022335e+02
0.00000000e+00
1.50596011e+03
4.56531117e+02
1.13806390e+03
1.79783728e+03
1.26027041e+03
9.67781185e+02
1.71229714e+03
1.57232632e+03
1.57084148e+03
1.60597157e+03
1.59496056e+03
1.35882132e+03
1.38563762e+03
1.76329305e+03
1.50138348e+03
1.01096754e+03
1.50832242e+03
7.57459233e+02
1.09876652e+03
0.00000000e+00
0.00000000e+00
1.10506221e+03
6.34920868e+02
8.21523336e+02
1.46944351e+03
1.14917737e+03
1.58250574e+03
1.40111991e+03
1.12188313e+03
1.36820321e+03
1.32100099e+03
1.56971466e+03
1.49019148e+03
1.27843144e+03
1.40836678e+03
1.04758202e+03
6.27163411e+02
1.59887462e+03
0.00000000e+00
1.36300684e+03
0.00000000e+00
4.84940462e+02
1.25448601e+03
8.11596692e+02
1.37445846e+03
1.90909083e+03
1.27275659e+03
1.31769977e+03
1.67394203e+03
1.44712463e+03
1.63299785e+03
1.42851949e+03
1.52594075e+03
1.30264958e+03
1.26508081e+03
1.94932746e+03
1.91559845e+03
6.81035235e+02
1.54624899e+03
9.35300865e+02
1.16425663e+03
0.00000000e+00
4.99221978e+02
1.34725993e+03
8.08402463e+02
1.11724990e+03
1.49319769e+03
1.30796315e+03
1.84350236e+03
1.50965473e+03
1.19547737e+03
1.41196355e+03
1.23415061e+03
1.53205289e+03
1.53227987e+03
1.34843201e+03
1.45248308e+03
1.17014995e+03
8.01262433e+02
1.59599897e+03
9.46280240e+02
8.82651191e+02
0.00000000e+00
5.01342927e+02
1.25585591e+03
7.42664319e+02
1.50166630e+03
1.58991600e+03
1.31627748e+03
1.41580819e+03
1.56128328e+03
1.34619752e+03
1.64836232e+03
1.40491721e+03
1.71095052e+03
1.32558826e+03
1.50729524e+03
1.42418382e+03
1.40446035e+03
7.40272770e+02
1.43463767e+03
0.00000000e+00
9.14991008e+02
0.00000000e+00
5.01319617e+02
9.10397396e+02
9.99151100e+02
1.27552132e+03
1.24370631e+03
1.02293248e+03
1.16924480e+03
1.19361417e+03
1.29331873e+03
1.23841018e+03
1.25286690e+03
1.35427270e+03
1.27758669e+03
1.17871875e+03
1.31450763e+03
1.36334194e+03
1.08487718e+03
1.09272250e+03
0.00000000e+00
9.17444372e+02
4.62079550e+02
6.06315917e+02
9.13199201e+02
1.01965581e+03
1.27657444e+03
1.19287612e+03
8.42092685e+02
8.76217180e+02
1.23731094e+03
1.02584640e+03
1.18545687e+03
1.10470234e+03
1.25076912e+03
1.15110511e+03
9.95953725e+02
1.24404025e+03
1.84664928e+03
1.13466346e+03
1.11936340e+03
8.90637514e+02
1.08181637e+03
0.00000000e+00
7.47596325e+02
1.16110839e+03
1.07737223e+03
1.59451207e+03
1.19391186e+03
1.13170410e+03
1.05720232e+03
1.21530789e+03
1.18094910e+03
1.59507748e+03
1.27155576e+03
1.23103386e+03
1.13999116e+03
1.16854317e+03
1.38550307e+03
1.68767832e+03
1.13621612e+03
1.08618289e+03
8.59302008e+02
7.54716524e+02
0.00000000e+00
1.07478094e+03
1.35946680e+03
1.24240387e+03
1.31356807e+03
1.46022036e+03
1.50261359e+03
1.00270388e+03
1.26316805e+03
9.27800035e+02
1.60676891e+03
9.86247182e+02
1.27935218e+03
1.07426228e+03
1.20455029e+03
1.63228122e+03
1.51498467e+03
1.26089616e+03
1.35416173e+03
1.09125127e+03
0.00000000e+00
0.00000000e+00
9.91298054e+02
1.05472435e+03
9.50119644e+02
1.25087693e+03
8.64273763e+02
7.96494504e+02
8.47407681e+02
5.40593141e+02
5.95183085e+02
6.95318336e+02
7.81250802e+02
8.31652858e+02
1.07053624e+03
1.10272417e+03
1.14102599e+03
1.28950874e+03
1.15483604e+03
1.15390072e+03
8.63390088e+02
0.00000000e+00
8.23154431e+02
1.14874731e+03
1.26916416e+03
8.63552960e+02
1.30999508e+03
1.20951963e+03
8.38467920e+02
8.52034788e+02
1.23262075e+03
1.06766173e+03
1.22687373e+03
1.16307849e+03
1.21018558e+03
1.01230691e+03
1.08798030e+03
1.16467183e+03
1.29448931e+03
1.19169155e+03
1.38024193e+03
1.06027821e+03
5.47849151e+02
9.98181669e+02
1.12243718e+03
7.56961227e+02
8.97754792e+02
1.21217659e+03
7.17118245e+02
6.37401600e+02
0.00000000e+00
0.00000000e+00
0.00000000e+00
6.24830509e+02
6.84164407e+02
6.77066918e+02
0.00000000e+00
9.47472722e+02
1.15545606e+03
1.23473203e+03
1.11911839e+03
1.11815836e+03
9.58332017e+02
0.00000000e+00
1.20348533e+03
0.00000000e+00
0.00000000e+00
9.69368761e+02
0.00000000e+00
7.13359283e+02
7.51205592e+02
0.00000000e+00
6.20387007e+02
0.00000000e+00
0.00000000e+00
0.00000000e+00
0.00000000e+00
7.57265746e+02
9.27491520e+02
1.06252801e+03
0.00000000e+00
1.03334019e+03
8.94568158e+02
6.55538675e+02
0.00000000e+00
5.70942230e+02
4.01325857e+02
2.79792353e+02
6.49055596e+02
4.06318631e+02
2.49046830e+02