# vtk DataFile Version 3.0
MPS 3D Simulation Step 7200
ASCII
DATASET UNSTRUCTURED_GRID
POINTS 20213 double
-1.14037939e-03 3.43577457e-04 -8.50535425e-04
-1.05582604e-03 1.93350829e-04 -8.63806657e-04
-9.39655743e-04 3.04704674e-04 -1.04934482e-03
-8.90236131e-04 3.38043830e-04 -1.11013367e-03
-8.40672186e-04 1.83995214e-04 -1.07311354e-03
-8.35844022e-04 3.79308719e-04 -1.16328862e-03
-6.57828804e-04 2.37459467e-04 -1.21772647e-03
-5.09365266e-04 2.24859195e-04 -1.27044766e-03
-4.44394772e-04 1.44827054e-04 -1.15102588e-03
-3.93473405e-04 8.00897899e-04 -1.13221507e-03
-2.00995779e-04 8.89904007e-04 -1.25557585e-03
-2.82537457e-04 8.29947664e-04 -1.25538989e-03
-1.10129590e-04 6.67136465e-04 -1.18602571e-03
-8.25744306e-05 1.80115953e-04 -1.33085739e-03
8.49793151e-06 1.92957567e-04 -1.34696883e-03
5.05246271e-04 1.25432055e-04 -1.17744866e-03
2.22826879e-04 6.87400616e-04 -8.60461241e-04
4.95490687e-04 1.89657611e-04 -1.23482722e-03
6.27577863e-04 6.35982952e-04 -1.06111267e-03
7.91415720e-04 7.61519699e-04 -9.18674640e-04
1.06922402e-03 5.03431461e-04 -7.85070125e-04
-1.09682105e-03 2.71324822e-04 -8.70162807e-04
-1.03534399e-03 2.45431355e-04 -9.26546794e-04
-9.92911751e-04 3.65844757e-04 -1.02583367e-03
-8.88791650e-04 4.33975714e-04 -1.13209641e-03
-8.44657507e-04 5.61998606e-04 -1.17434670e-03
-9.54674973e-04 4.81606877e-04 -1.07916213e-03
-7.81034331e-04 4.22084669e-04 -1.20960615e-03
-5.58646515e-04 3.65007992e-04 -1.30582586e-03
-3.74693300e-04 1.99030203e-04 -1.29362529e-03
-3.75307921e-04 1.21296975e-04 -1.21830679e-03
-1.32440523e-04 2.45279602e-04 -1.35481362e-03
1.10787100e-04 1.84141547e-04 -1.33617452e-03
1.68440872e-04 3.50558909e-04 -1.38966364e-03
2.27250770e-04 2.90826459e-04 -1.36501070e-03
2.69871444e-04 2.29271967e-04 -1.33693033e-03
4.19260884e-04 1.35838322e-04 -1.22782520e-03
4.14878742e-04 2.58436435e-04 -1.30834238e-03
4.75174160e-04 6.45234964e-04 -1.21277237e-03
4.05591823e-04 1.91458276e-04 -1.27626612e-03
5.80506914e-04 1.86811804e-04 -1.20306552e-03
8.41584861e-04 1.19425395e-04 -1.00939805e-03
-1.08265387e-03 3.34192810e-04 -9.20483986e-04
-1.05426280e-03 3.93349525e-04 -9.70647809e-04
-1.05361999e-03 5.99183698e-04 -9.82663097e-04
-8.15436056e-04 2.99199321e-04 -1.15198547e-03
-9.41304007e-04 3.97589260e-04 -1.08012496e-03
-8.37241681e-04 4.77732843e-04 -1.17889910e-03
-5.81621740e-04 2.73327509e-04 -1.26679306e-03
-6.87163530e-04 3.10254568e-04 -1.23418805e-03
-4.37717635e-04 3.39153444e-04 -1.33886602e-03
-3.11120731e-04 2.36590047e-04 -1.32817235e-03
-1.29211223e-04 3.92057831e-04 -1.40427482e-03
-4.58471200e-05 2.52710418e-04 -1.36788082e-03
1.38130832e-04 4.26780941e-04 -1.40631765e-03
3.06488643e-04 3.23025787e-04 -1.36145541e-03
2.46495868e-04 1.48665852e-04 -1.29468574e-03
4.00691706e-04 4.27755465e-04 -1.35727189e-03
4.68479903e-04 3.39627428e-04 -1.31432527e-03
3.90426896e-04 3.41030789e-04 -1.34179733e-03
6.42907217e-04 2.60842608e-04 -1.21512117e-03
7.46306509e-04 1.94077475e-04 -1.13699814e-03
7.77282822e-04 1.35393119e-04 -1.07909988e-03
-1.16902412e-03 4.23892155e-04 -8.28930028e-04
-1.08182656e-03 4.67587454e-04 -9.52394910e-04
-1.03941336e-03 5.20536343e-04 -1.00175677e-03
-9.00418251e-04 5.22375610e-04 -1.12861159e-03
-7.78601613e-04 5.12812920e-04 -1.22213940e-03
-7.03323724e-04 3.95626064e-04 -1.24872924e-03
-6.26506173e-04 3.41946208e-04 -1.27267158e-03
-3.69397564e-04 2.90356036e-04 -1.33888397e-03
-2.85025204e-04 3.12162441e-04 -1.36334945e-03
-3.12461257e-04 1.54800554e-04 -1.27513540e-03
-6.58626842e-05 4.48008971e-04 -1.41826618e-03
-1.12253815e-04 1.15020604e-04 -1.25733867e-03
-2.65818716e-05 3.80199701e-04 -1.40770943e-03
1.14331542e-05 3.10836876e-04 -1.39025259e-03
2.45245813e-04 3.80120939e-04 -1.38465558e-03
3.45288581e-04 2.61024225e-04 -1.33155451e-03
4.59082315e-04 5.02826955e-04 -1.34222539e-03
7.03573930e-04 3.30368459e-04 -1.21190028e-03
7.22803819e-04 2.56998175e-04 -1.17676168e-03
8.04660354e-04 2.44666567e-04 -1.12291476e-03
8.89391240e-04 2.55360774e-04 -1.06446645e-03
-1.18627161e-03 5.06627420e-04 -8.09900548e-04
-9.96940779e-04 6.34638608e-04 -1.03275907e-03
-1.00928912e-03 4.47993244e-04 -1.02491016e-03
-7.88189966e-04 5.98828446e-04 -1.21652711e-03
-6.42882370e-04 5.13867809e-04 -1.29309281e-03
-7.14068026e-04 4.76581652e-04 -1.25590426e-03
-3.59404354e-04 3.68484214e-04 -1.36622029e-03
-2.92791242e-04 4.10595457e-04 -1.38847669e-03
-2.31166394e-04 3.65701572e-04 -1.38999275e-03
-1.33244158e-04 4.88539358e-04 -1.41869665e-03
-4.91270572e-05 5.29462355e-04 -1.42178400e-03
-1.69847085e-04 3.18867618e-04 -1.38162549e-03
1.89139577e-05 4.64477374e-04 -1.41743097e-03
2.62034466e-04 5.54977841e-04 -1.39772308e-03
6.10917810e-05 3.95987616e-04 -1.40798456e-03
3.25130690e-04 4.04533307e-04 -1.37384036e-03
3.70973505e-04 5.00786123e-04 -1.37197162e-03
5.64329852e-04 2.54931275e-04 -1.24482184e-03
7.78615728e-04 3.20881601e-04 -1.16664104e-03
8.50267892e-04 3.09331219e-04 -1.11612259e-03
8.36320373e-04 3.87316492e-04 -1.14651577e-03
-1.16209441e-03 6.47080871e-04 -8.35034245e-04
-1.09929347e-03 5.47716321e-04 -9.36358934e-04
-9.39519914e-04 6.75986702e-04 -1.07910377e-03
-9.84087816e-04 5.54256626e-04 -1.05443021e-03
-7.16359502e-04 5.59084521e-04 -1.26055113e-03
-5.64963857e-04 4.56350890e-04 -1.31745739e-03
-4.93229275e-04 4.03260129e-04 -1.33553284e-03
-4.18530219e-04 4.32136658e-04 -1.36200819e-03
-1.98538631e-04 4.38932814e-04 -1.40640291e-03
-2.61650466e-04 4.93608192e-04 -1.40385157e-03
-1.91501819e-04 5.42550014e-04 -1.41683062e-03
-8.65008669e-05 3.21879377e-04 -1.38972255e-03
2.12857950e-04 4.55305600e-04 -1.40099049e-03
2.91452268e-04 4.77721771e-04 -1.38939243e-03
6.08653432e-05 2.44805236e-04 -1.36642049e-03
2.79996390e-04 7.25268140e-04 -1.38447961e-03
3.39775743e-04 5.74172236e-04 -1.38324853e-03
4.73511485e-04 4.20312045e-04 -1.33164767e-03
6.26518483e-04 3.36465518e-04 -1.24974357e-03
7.62317427e-04 4.03071162e-04 -1.19350440e-03
9.67425165e-04 4.10311647e-04 -1.04894668e-03
-1.15188993e-03 5.70117153e-04 -8.62451108e-04
-1.13897079e-03 4.89554815e-04 -8.82645363e-04
-9.91464665e-04 7.20757882e-04 -1.01990361e-03
-8.72227962e-04 6.34527686e-04 -1.14549893e-03
-7.31877452e-04 6.42544124e-04 -1.24861964e-03
-5.69551517e-04 5.38718673e-04 -1.32349160e-03
-4.87356047e-04 4.88386125e-04 -1.34869668e-03
-3.48294951e-04 4.68996209e-04 -1.38609550e-03
-4.13906964e-04 5.25875586e-04 -1.37553134e-03
-3.32209408e-04 5.50632716e-04 -1.39667241e-03
-1.14853654e-04 5.81654418e-04 -1.41961329e-03
2.76626123e-05 5.53948918e-04 -1.41904353e-03
9.88620903e-05 4.97625006e-04 -1.41403013e-03
1.81519077e-04 5.29930275e-04 -1.40737575e-03
2.03829406e-04 6.12639652e-04 -1.40419299e-03
5.44560025e-04 4.93892552e-04 -1.30860649e-03
5.07645158e-04 5.74240079e-04 -1.32336841e-03
5.48691137e-04 3.28480049e-04 -1.28084488e-03
5.45260680e-04 4.08359571e-04 -1.30315096e-03
9.04127508e-04 4.37069638e-04 -1.10676484e-03
8.83351246e-04 5.31668536e-04 -1.13026100e-03
-1.17043983e-03 7.23126960e-04 -7.95786612e-04
-1.10740378e-03 6.27152736e-04 -9.15800935e-04
-1.05136509e-03 6.79073612e-04 -9.69084091e-04
-9.27952140e-04 5.94349591e-04 -1.09980337e-03
-6.47848480e-04 5.97436325e-04 -1.29251361e-03
-4.93754489e-04 5.72345570e-04 -1.35066375e-03
-5.03945478e-04 6.55182987e-04 -1.34376753e-03
-4.20789871e-04 6.06844797e-04 -1.37483496e-03
-3.47086094e-04 6.29280882e-04 -1.39371915e-03
-2.60220711e-04 5.91202825e-04 -1.40937457e-03
-1.86441519e-04 6.34046967e-04 -1.41410718e-03
-3.92089341e-05 6.20036502e-04 -1.41692523e-03
4.18254487e-05 6.43317393e-04 -1.41259974e-03
1.09173551e-04 5.82307425e-04 -1.41308107e-03
2.05442831e-04 6.95023215e-04 -1.39764962e-03
4.21935111e-04 5.75472209e-04 -1.35797598e-03
3.78537779e-04 6.45371269e-04 -1.36914300e-03
5.88719903e-04 5.71324722e-04 -1.29075499e-03
6.17854356e-04 4.16434737e-04 -1.27227390e-03
8.36897291e-04 4.67533985e-04 -1.15591679e-03
8.55360353e-04 6.30210414e-04 -1.15182170e-03
-1.12245530e-03 6.96436816e-04 -8.81451444e-04
-1.07575850e-03 7.41893469e-04 -9.23958576e-04
-1.02291603e-03 7.77883381e-04 -9.70420802e-04
-7.49019421e-04 7.17425926e-04 -1.22159822e-03
-6.67171112e-04 6.74249337e-04 -1.27655818e-03
-5.74981349e-04 6.20839494e-04 -1.31969527e-03
-5.24124725e-04 7.32824925e-04 -1.32108041e-03
-4.35042251e-04 6.88863783e-04 -1.36455551e-03
-3.60873702e-04 7.08807315e-04 -1.38143494e-03
-2.73963041e-04 6.73350399e-04 -1.40243794e-03
-2.01138028e-04 7.15478528e-04 -1.40605690e-03
-1.07511330e-04 6.72755882e-04 -1.41247670e-03
-2.59801623e-05 7.03311754e-04 -1.40808241e-03
5.66992189e-05 7.29561465e-04 -1.40161638e-03
1.25266704e-04 6.65791611e-04 -1.40471869e-03
3.54858851e-04 7.22089417e-04 -1.36649553e-03
3.85165299e-04 8.03803225e-04 -1.33939424e-03
4.66069495e-04 6.49545426e-04 -1.33507111e-03
6.25005636e-04 4.96267683e-04 -1.27568963e-03
6.91546970e-04 4.09338678e-04 -1.23535921e-03
8.17503442e-04 5.60113119e-04 -1.17370277e-03
-1.12451921e-03 7.72854550e-04 -8.44363068e-04
-1.01259684e-03 8.55140300e-04 -9.43450530e-04
-9.29504617e-04 7.58781292e-04 -1.06799417e-03
-8.10393344e-04 6.74081311e-04 -1.18843736e-03
-7.45376461e-04 7.98401542e-04 -1.20096754e-03
-5.96910502e-04 6.99686507e-04 -1.30003123e-03
-6.04014658e-04 7.80245355e-04 -1.27515253e-03
-4.48108198e-04 7.66761273e-04 -1.34330415e-03
-3.70598201e-04 7.90919197e-04 -1.36105832e-03
-2.91697927e-04 7.52121290e-04 -1.38977370e-03
-2.21969342e-04 7.94542390e-04 -1.39092847e-03
-1.27781022e-04 7.50326223e-04 -1.40202577e-03
-5.25502142e-05 7.81204311e-04 -1.39506655e-03
2.33249347e-05 8.06179860e-04 -1.38858873e-03
1.35672307e-04 7.54141952e-04 -1.39466460e-03
3.05473221e-04 8.04788397e-04 -1.36143013e-03
4.63229589e-04 8.09074139e-04 -1.31306376e-03
4.32058494e-04 7.26298910e-04 -1.34099200e-03
6.68035886e-04 5.73895605e-04 -1.25764619e-03
7.70591381e-04 4.85896027e-04 -1.19891531e-03
8.21453706e-04 7.15558843e-04 -1.16582653e-03
-1.07110320e-03 8.20650255e-04 -8.92625854e-04
-9.97733369e-04 9.32997495e-04 -9.11232710e-04
[...]
POINT_DATA 20213
SCALARS pressure double 1
LOOKUP_TABLE default
0.00000000e+00
0.00000000e+00
9.21133968e+02
1.35053188e+03
0.00000000e+00
1.62538043e+03
1.59540896e+03
0.00000000e+00
8.68625459e+02
9.35621765e+02
6.31028759e+02
5.23303734e+02
1.08294514e+03
0.00000000e+00
0.00000000e+00
3.66371579e+02
1.90644011e+03
0.00000000e+00
1.13231530e+03
1.02522194e+03
6.70968205e+02
0.00000000e+00
0.00000000e+00
0.00000000e+00
1.36698521e+03
1.38406958e+03
0.00000000e+00
1.61651359e+03
1.16770134e+03
0.00000000e+00
5.37778962e+02
0.00000000e+00
0.00000000e+00
0.00000000e+00
0.00000000e+00
0.00000000e+00
0.00000000e+00
0.00000000e+00
1.21313424e+03
0.00000000e+00
0.00000000e+00
5.77744259e+02
0.00000000e+00
0.00000000e+00
0.00000000e+00
1.62084361e+03
1.00829174e+03
1.50194908e+03
1.27768682e+03
1.68038800e+03
0.00000000e+00
0.00000000e+00
0.00000000e+00
0.00000000e+00
0.00000000e+00
0.00000000e+00
4.39814678e+02
0.00000000e+00
0.00000000e+00
0.00000000e+00
0.00000000e+00
0.00000000e+00
5.59419945e+02
0.00000000e+00
0.00000000e+00
0.00000000e+00
1.18220280e+03
1.47794907e+03
1.56625912e+03
1.48423635e+03
0.00000000e+00
0.00000000e+00
0.00000000e+00
0.00000000e+00
3.77491770e+02
0.00000000e+00
0.00000000e+00
5.27363725e+02
0.00000000e+00
0.00000000e+00
0.00000000e+00
0.00000000e+00
7.64995244e+02
8.82765684e+02
0.00000000e+00
0.00000000e+00
0.00000000e+00
0.00000000e+00
0.00000000e+00
1.51588223e+03
0.00000000e+00
0.00000000e+00
0.00000000e+00
5.58108158e+02
6.40135133e+02
0.00000000e+00
0.00000000e+00
1.09588930e+03
0.00000000e+00
0.00000000e+00
0.00000000e+00
0.00000000e+00
0.00000000e+00
9.80229110e+02
9.79636106e+02
0.00000000e+00
0.00000000e+00
0.00000000e+00
0.00000000e+00
1.25757072e+03
1.20458242e+03
8.99629794e+02
0.00000000e+00
5.14181795e+02
0.00000000e+00
0.00000000e+00
0.00000000e+00
9.21204396e+02
8.64552220e+02
0.00000000e+00
0.00000000e+00
1.15910177e+03
0.00000000e+00
0.00000000e+00
0.00000000e+00
8.09434478e+02
0.00000000e+00
0.00000000e+00
0.00000000e+00
1.12003775e+03
0.00000000e+00
9.61969274e+02
1.01174723e+03
6.31325198e+02
7.67121748e+02
6.03409011e+02
0.00000000e+00
8.15592584e+02
8.42563958e+02
1.14695340e+03
1.27247798e+03
0.00000000e+00
0.00000000e+00
0.00000000e+00
0.00000000e+00
8.10343629e+02
6.75740997e+02
6.42276016e+02
6.73777308e+02
8.10609994e+02
9.41356124e+02
0.00000000e+00
0.00000000e+00
0.00000000e+00
0.00000000e+00
6.35438723e+02
0.00000000e+00
0.00000000e+00
6.47325112e+02
0.00000000e+00
1.05024437e+03
1.31506508e+03
0.00000000e+00
1.44970486e+03
0.00000000e+00
0.00000000e+00
8.42098280e+02
0.00000000e+00
8.00547237e+02
9.94397706e+02
1.07926634e+03
9.73690514e+02
8.60160100e+02
6.92277086e+02
0.00000000e+00
0.00000000e+00
0.00000000e+00
3.72970076e+02
0.00000000e+00
0.00000000e+00
0.00000000e+00
1.07686199e+03
1.18676682e+03
1.52563539e+03
1.55317582e+03
1.19894339e+03
0.00000000e+00
0.00000000e+00
7.02660172e+02
0.00000000e+00
1.26655216e+03
0.00000000e+00
1.08578254e+03
9.33715998e+02
0.00000000e+00
0.00000000e+00
0.00000000e+00
0.00000000e+00
0.00000000e+00
0.00000000e+00
0.00000000e+00
6.77372676e+02
1.20882301e+03
0.00000000e+00
1.53573275e+03
1.47058432e+03
1.54005040e+03
0.00000000e+00
5.41145390e+02
0.00000000e+00
0.00000000e+00
1.25016972e+03
0.00000000e+00
1.05374385e+03
0.00000000e+00
0.00000000e+00
0.00000000e+00
0.00000000e+00
0.00000000e+00
0.00000000e+00
7.43545224e+02
0.00000000e+00
0.00000000e+00
0.00000000e+00
1.32590180e+03
0.00000000e+00
1.68306445e+03
1.44814644e+03
1.38149550e+03
8.53917581e+02
0.00000000e+00
9.61557106e+02
1.13447936e+03
1.55318995e+03
0.00000000e+00
1.07622981e+03
8.73640774e+02
5.77972558e+02
0.00000000e+00
0.00000000e+00
0.00000000e+00
0.00000000e+00
8.94925468e+02
1.36759979e+03
1.52729755e+03
1.55162567e+03
1.53841249e+03
1.41078803e+03
1.44839483e+03
1.45553750e+03
0.00000000e+00
1.15478527e+03
1.06230288e+03
1.26450828e+03
1.58324029e+03
1.19438470e+03
1.01050175e+03
8.69474311e+02
0.00000000e+00
0.00000000e+00
0.00000000e+00
0.00000000e+00
0.00000000e+00
1.04405717e+03
1.30119371e+03
1.62409144e+03
1.68132828e+03
0.00000000e+00
0.00000000e+00
1.22962738e+03
0.00000000e+00
1.12471697e+03
9.82246892e+02
1.27911895e+03
1.43952805e+03
1.37948141e+03
1.46964775e+03
0.00000000e+00
0.00000000e+00
5.94503891e+02
0.00000000e+00
0.00000000e+00
0.00000000e+00
0.00000000e+00
1.00762178e+03
1.49142352e+03
1.60656460e+03
1.56430995e+03
1.54487421e+03
1.17358248e+03
0.00000000e+00
0.00000000e+00
0.00000000e+00
9.88602626e+02
0.00000000e+00
1.24673207e+03
1.61674051e+03
1.42081120e+03
1.27646900e+03
0.00000000e+00
0.00000000e+00
0.00000000e+00
0.00000000e+00
0.00000000e+00
0.00000000e+00
1.01462670e+03
0.00000000e+00
1.34954022e+03
1.28541659e+03
1.46556987e+03
0.00000000e+00
0.00000000e+00
0.00000000e+00
1.01795316e+03
0.00000000e+00
0.00000000e+00
0.00000000e+00
1.52003192e+03
1.52920345e+03
1.23402961e+03
0.00000000e+00
0.00000000e+00
0.00000000e+00
0.00000000e+00
0.00000000e+00
0.00000000e+00
9.29293350e+02
0.00000000e+00
0.00000000e+00
0.00000000e+00
1.26823079e+03
1.05142254e+03
0.00000000e+00
0.00000000e+00
1.01261213e+03
1.18617073e+03
0.00000000e+00
1.05935591e+03
1.51218409e+03
1.32485183e+03
9.78858901e+02
7.45258326e+02
6.99254323e+02
0.00000000e+00
0.00000000e+00
0.00000000e+00
7.46219925e+02
0.00000000e+00
9.20760782e+02
8.19769622e+02
0.00000000e+00
8.25376933e+02
7.31887606e+02
0.00000000e+00
0.00000000e+00
9.71826695e+02
9.97274544e+02
0.00000000e+00
1.25313543e+03
1.08403835e+03
1.40029261e+03
1.19132254e+03
0.00000000e+00
9.00270237e+02
0.00000000e+00
0.00000000e+00
4.90068990e+02
6.53064446e+02
8.57727640e+02
0.00000000e+00
0.00000000e+00
0.00000000e+00
0.00000000e+00
0.00000000e+00
0.00000000e+00
0.00000000e+00
0.00000000e+00
1.27675515e+03
0.00000000e+00
0.00000000e+00
0.00000000e+00
1.07295900e+03
1.18955398e+03
0.00000000e+00
0.00000000e+00
0.00000000e+00
6.88145716e+02
0.00000000e+00
7.28161046e+02
7.75857394e+02
6.89580639e+02
5.60632897e+02
5.29628788e+02
0.00000000e+00
0.00000000e+00
0.00000000e+00
0.00000000e+00
7.91579938e+02
1.20389376e+03
0.00000000e+00
0.00000000e+00
1.02518640e+03
1.03388401e+03
0.00000000e+00
1.06947772e+03
0.00000000e+00
0.00000000e+00
0.00000000e+00
9.63208880e+02
8.28280736e+02
1.05058923e+03
8.42393682e+02
0.00000000e+00
0.00000000e+00
0.00000000e+00
0.00000000e+00
0.00000000e+00
0.00000000e+00
0.00000000e+00
1.12862272e+03
0.00000000e+00
0.00000000e+00
7.24225295e+02
0.00000000e+00
9.31370927e+02
9.40989847e+02
0.00000000e+00
0.00000000e+00
0.00000000e+00
0.00000000e+00
0.00000000e+00
8.91510981e+02
8.21664212e+02
0.00000000e+00
0.00000000e+00
0.00000000e+00
3.18346312e+02
0.00000000e+00
0.00000000e+00
8.31357443e+02
0.00000000e+00
0.00000000e+00
0.00000000e+00
4.72527111e+02
0.00000000e+00
1.33496809e+03
1.43225499e+03
1.65720148e+03
1.67507259e+03
0.00000000e+00
1.38987878e+03
1.91631850e+03
1.87308195e+03
1.29520004e+03
1.28760289e+03
1.10862647e+03
1.64111382e+03
0.00000000e+00
1.26982702e+03
1.24298092e+03
5.04909691e+02
0.00000000e+00
0.00000000e+00
1.07153606e+03
8.20960399e+02
2.24074717e+03
1.52037041e+03
1.72070312e+03
1.16608633e+03
1.43725320e+03
9.19471728e+02
1.95889861e+03
2.31242459e+03
2.38850285e+03
7.00107289e+02
2.38903646e+03
2.05846491e+03
1.39749116e+03
1.27476162e+03
1.28745197e+03
1.55453891e+03
1.34913120e+03
9.56605930e+02
0.00000000e+00
1.19996358e+03
1.23270108e+03
2.02566471e+03
9.72811669e+02
1.09986474e+03
2.15399367e+03
0.00000000e+00
0.00000000e+00
8.64141160e+02
0.00000000e+00
0.00000000e+00
0.00000000e+00
0.00000000e+00
2.02010466e+03
8.37881776e+02
1.06654011e+03
1.06921513e+03
1.47728333e+03
1.16625775e+03
6.56253944e+02
0.00000000e+00
9.67407940e+02
2.32236467e+03
1.33862751e+03
1.11668509e+03
1.86432487e+03
1.41873212e+03
1.43083771e+03
8.07484959e+02
8.50716204e+02
8.96171443e+02
1.37232810e+03
1.80084209e+03
1.29732904e+03
1.14415751e+03
1.03296508e+03
1.68490440e+03
1.14864544e+03
1.23230280e+03
1.85619831e+03
0.00000000e+00
0.00000000e+00
1.08109699e+03
2.08638255e+03
2.04713331e+03
2.29480521e+03
2.06242263e+03
1.95683202e+03
7.12255620e+02
8.30159427e+02
1.88837171e+03
2.05941947e+03
2.14321677e+03
8.54568748e+02
1.71114903e+03
6.10245550e+02
2.06662211e+03
7.39240547e+02
1.08687708e+03
1.41956874e+03
1.07591114e+03
7.46990419e+02
0.00000000e+00
2.18616039e+03
8.53582742e+02
1.39588716e+03
2.33230505e+03
1.35474791e+03
2.31742378e+03
1.60772816e+03
6.07967977e+02
9.87002490e+02
2.27213402e+03
1.05115191e+03
1.70987583e+03
1.72153767e+03
7.22241503e+02
1.51167203e+03
9.72682472e+02
1.07086027e+03
1.20104986e+03
1.59856294e+03
7.15831999e+02
0.00000000e+00
1.56149923e+03
1.54481419e+03
1.84490420e+03
1.82174138e+03
1.43361617e+03
1.94901137e+03
1.46432910e+03
6.44656934e+02
1.90544727e+03
9.29920691e+02
1.63919254e+03
2.37556659e+03
1.39297552e+03
1.29262055e+03
1.71284747e+03
1.38344253e+03
9.51367537e+02
8.23451283e+02
1.25144254e+03
0.00000000e+00
0.00000000e+00
8.04198572e+02
1.18033892e+03
1.49610365e+03
1.57508127e+03
1.95367772e+03
1.13092812e+03
2.15165113e+03
1.31637863e+03
1.77387816e+03
1.37610979e+03
1.02586740e+03
2.32104002e+03
1.37411165e+03
1.91098237e+03
1.89765206e+03
1.00293814e+03
6.51049369e+02
0.00000000e+00
1.21973640e+03
0.00000000e+00
0.00000000e+00
2.17462096e+03
1.32841551e+03
1.46454223e+03
1.19917994e+03
1.92082289e+03
1.21986721e+03
1.86645552e+03
2.22630547e+03
7.83550326e+02
1.88039326e+03
2.35755172e+03
1.09657224e+03
1.72328876e+03
8.18357084e+02
6.87753943e+02
2.23957044e+03
2.28717772e+03
0.00000000e+00
1.10913601e+03
0.00000000e+00
0.00000000e+00
2.28913070e+03
9.70901947e+02
1.44967104e+03
1.30953670e+03
7.53007458e+02
7.79144197e+02
8.55363592e+02
1.86299873e+03
1.05424484e+03
9.32737228e+02
1.04058859e+03
2.32673969e+03
1.11854314e+03
8.94013465e+02
9.79385415e+02
7.73968657e+02
1.00471260e+03
1.04248144e+03
1.12829799e+03
7.99806925e+02
8.19148987e+02
1.47810589e+03
0.00000000e+00
1.28301134e+03
1.37141917e+03
1.34038637e+03
9.19034840e+02
1.61689875e+03
1.46419845e+03
1.81825846e+03
1.11657093e+03
2.02597973e+03
8.51794968e+02
2.03667782e+03
6.38451906e+02
5.29918123e+02
2.04567961e+03
1.98757919e+03
9.31546169e+02
1.46664207e+03
0.00000000e+00
1.08055843e+03
1.12485648e+03
1.20704416e+03
8.05468929e+02
1.21442718e+03
1.11729037e+03
1.07579428e+03
8.81767548e+02
2.39201534e+03
1.49356537e+03
2.28519905e+03
1.36461789e+03
1.65301496e+03
9.59457205e+02
1.71846729e+03
4.89132457e+02
5.49221067e+02
6.89235653e+02
1.42817511e+03
9.17931627e+02
1.03750907e+03
8.08457794e+02
1.54324976e+03
1.51471473e+03
1.88318674e+03
1.78033751e+03
1.22179971e+03
1.10953329e+03
1.78861102e+03
2.08055911e+03
1.18096291e+03
1.30084550e+03
2.24658130e+03
8.66726396e+02
2.38327917e+03
8.52837988e+02
8.77129235e+02
8.30319860e+02
2.13859896e+03
1.20794869e+03
2.13582338e+03
1.03424725e+03
0.00000000e+00
6.34687153e+02
1.51699227e+03
1.45267691e+03
1.13119536e+03
1.15054383e+03
1.31652712e+03
1.30740225e+03
1.80124738e+03
8.97505885e+02
1.08419663e+03
8.92358952e+02
1.11782379e+03
9.46572469e+02
8.24115346e+02
9.33360575e+02
1.24671243e+03
1.43043401e+03
1.17158470e+03
7.49191336e+02
1.10455451e+03
0.00000000e+00
7.42360056e+02
7.45568005e+02
1.36179710e+03
1.40073002e+03
1.18435090e+03
1.66655921e+03
2.34223836e+03
1.95887413e+03
9.69678126e+02
2.16680717e+03
9.89063204e+02
9.93256041e+02
1.00835098e+03
1.28102390e+03
1.48953261e+03
2.23407336e+03
5.31799917e+02
9.18637160e+02
9.40405421e+02
1.12898639e+03
0.00000000e+00
9.15955661e+02
1.14838436e+03
1.02582553e+03
1.00136441e+03
0.00000000e+00
1.12450798e+03
8.85449634e+02
1.15176709e+03
1.09601489e+03
1.04370291e+03
1.70069873e+03
8.99164293e+02
8.79171864e+02
4.73658676e+02
1.17053911e+03
1.89556092e+03
7.82393049e+02
1.45433716e+03
5.61693882e+02
1.23796212e+03
0.00000000e+00
1.41796370e+03
1.59645520e+03
8.48534069e+02
2.14997886e+03
8.44528746e+02
9.26672212e+02
1.00343980e+03
1.83879048e+03
8.26320058e+02
5.71864956e+02
7.70059231e+02
1.25779472e+03
9.39217722e+02
2.32282679e+03
1.07600847e+03
2.16696315e+03
9.14897058e+02
1.92214995e+03
2.53074853e+02
9.49465361e+02
0.00000000e+00
1.10296840e+03
6.61484069e+02
1.36039864e+03
7.56037742e+02
1.72394265e+03
1.10510542e+03
9.17331199e+02
1.37628034e+03
8.90608880e+02
9.41782752e+02
6.99568542e+02
2.17348845e+03
1.93057707e+03
9.35868571e+02
4.78603383e+02
8.70367055e+02
1.46259184e+03
4.78186787e+02
2.95152710e+02
1.20818048e+03
0.00000000e+00
9.83375199e+02
6.73766886e+02
1.02997367e+03
1.49915326e+03
1.27192465e+03
6.39278910e+02
0.00000000e+00
7.34029980e+02
0.00000000e+00
9.54959947e+02
0.00000000e+00
8.01722250e+02
0.00000000e+00
3.71002847e+02
8.22998970e+02
7.62939868e+02
2.76834884e+02
2.36876900e+02
1.35074407e+03
1.14387285e+03
0.00000000e+00
2.11334466e+03
1.11685396e+03
1.48922474e+03
7.45991268e+02
1.31660601e+03
8.48401691e+02
7.42114613e+02
8.65218755e+02
7.29614667e+02
1.81165175e+03
9.02902815e+02
2.17957957e+03
5.36741098e+02
3.79185527e+02
3.78159870e+02
2.51732470e+02
9.00299775e+02
8.27912893e+02
2.22251364e+03
1.06126122e+03
0.00000000e+00
0.00000000e+00
0.00000000e+00
0.00000000e+00
0.00000000e+00
0.00000000e+00
9.24126644e+02
0.00000000e+00
5.74793091e+02
0.00000000e+00
8.01052492e+02
8.14115210e+02
0.00000000e+00
0.00000000e+00
0.00000000e+00
0.00000000e+00
0.00000000e+00
0.00000000e+00
0.00000000e+00
0.00000000e+00
8.37525328e+02
0.00000000e+00
0.00000000e+00
0.00000000e+00
9.21205808e+02
1.44715012e+03
8.33444786e+02
1.40499396e+03
1.34587677e+03
1.70199794e+03
1.35360399e+03
1.03849698e+03
1.42077421e+03
1.35514022e+03
0.00000000e+00
1.17298548e+03
0.00000000e+00
1.06856844e+03
8.60951582e+02
0.00000000e+00
0.00000000e+00
6.75958910e+02
0.00000000e+00
1.85714930e+03
1.19279104e+03
8.40916048e+02
1.54913921e+03
1.06937778e+03
1.36250234e+03
1.34731185e+03
2.22661486e+03
1.30934916e+03
9.20442057e+02
1.37983990e+03
6.44870792e+02
0.00000000e+00
1.40042545e+03
1.56866702e+03
1.92164263e+03
1.81187951e+03
1.41252521e+03
9.94305839e+02
0.00000000e+00
0.00000000e+00
1.19381394e+03
1.87133463e+03
2.34519022e+03
1.91449673e+03
2.13685879e+03
2.35438168e+03
9.36937535e+02
1.78034205e+03
1.52888796e+03
7.32626096e+02
1.00485629e+03
1.15322376e+03
1.36735051e+03
1.33216602e+03
1.88174640e+03
8.31531624e+02
7.16191341e+02
8.10668986e+02
1.24312813e+03
8.90940072e+02
0.00000000e+00
7.29067491e+02
2.13751677e+03
5.33929502e+02
2.23436414e+03
1.63825028e+03
1.70227670e+03
1.92106585e+03
1.11810473e+03
5.19375909e+02
5.88658256e+02
1.73651478e+03
1.61676974e+03
6.71332562e+02
1.39791696e+03
7.52041269e+02
9.28042556e+02
1.68791878e+03
9.81222430e+02
1.15266951e+03
0.00000000e+00
0.00000000e+00
1.62213525e+03
1.15292041e+03
8.17673687e+02
1.82566005e+03
2.20790577e+03
1.38607020e+03
1.51321510e+03
9.66276748e+02
1.93692762e+03
8.28966390e+02
7.21274618e+02
6.80581682e+02
1.70112378e+03
8.77196544e+02
1.26485769e+03
1.48877685e+03
7.90708755e+02
1.97380253e+03
1.54549262e+03
0.00000000e+00
0.00000000e+00
1.47846148e+03
1.31529203e+03
1.57528795e+03
2.39202068e+03
1.26671539e+03
1.84554979e+03
1.98980318e+03
7.57692937e+02
1.48106606e+03
5.53644062e+02
2.32000601e+03
6.79807184e+02
7.09785015e+02
1.81886291e+03
1.00371016e+03
1.33836306e+03
8.07167850e+02
1.02288365e+03
9.50355214e+02
0.00000000e+00
0.00000000e+00
1.62168851e+03
1.85581836e+03
1.46365376e+03
1.72227117e+03
2.18400903e+03
1.62683829e+03
1.78149131e+03
1.07975269e+03
2.36380242e+03
1.80777303e+03
7.71433781e+02
8.21457674e+02
6.25379086e+02
2.01557897e+03
1.78457312e+03
1.70303284e+03
2.06180625e+03
1.00862237e+03
1.31250701e+03
0.00000000e+00
0.00000000e+00
0.00000000e+00
2.32173320e+03
2.14148636e+03
2.14482982e+03
1.86322519e+03
1.24458554e+03
8.12099503e+02
1.24500264e+03
1.72760004e+03
2.32408166e+03
1.56210037e+03
1.65231898e+03
2.34158280e+03
2.22477449e+03
8.75845336e+02
2.18155890e+03
2.11376109e+03
1.95154630e+03
6.92407553e+02
5.90852060e+02
0.00000000e+00
0.00000000e+00
8.97470407e+02
1.09532784e+03
2.17384435e+03
1.21991865e+03
2.33199844e+03
1.43003865e+03
1.29415653e+03
1.84458474e+03
2.33174121e+03
1.72270536e+03
8.10131975e+02
1.05244710e+03
1.92756945e+03
8.46335602e+02
2.16791872e+03
1.75485369e+03
9.97553636e+02
0.00000000e+00
0.00000000e+00
0.00000000e+00
0.00000000e+00
2.11085812e+03
1.07544816e+03
2.27323207e+03
2.32553609e+03
2.29291854e+03
8.80861274e+02
5.60836495e+02
1.63335933e+03
6.82870719e+02
2.23929840e+03
1.24635139e+03
6.47778375e+02
1.77726741e+03
7.73699899e+02
1.45431208e+03
1.19428207e+03
7.93467116e+02
4.12115634e+02
0.00000000e+00
0.00000000e+00
0.00000000e+00
1.82977543e+03
8.88980375e+02
2.03543401e+03
1.99968485e+03
1.59803359e+03
1.41417984e+03
2.19499433e+03
2.20349210e+03
1.47521450e+03
2.36052024e+03
5.78963012e+02
2.29227598e+03
2.01263452e+03
1.31992889e+03
1.63498022e+03
1.17385682e+03
1.07872149e+03
0.00000000e+00
0.00000000e+00
0.00000000e+00
0.00000000e+00
2.15772075e+03
1.33836127e+03
1.98733374e+03
1.02561914e+03
1.56402700e+03
1.48696948e+03
2.32003964e+03
2.02842171e+03
1.58799489e+03
1.34823683e+03
6.13431360e+02
1.76121590e+03
1.23435775e+03
1.34180578e+03
1.31123874e+03
1.40072617e+03
2.23448298e+03
0.00000000e+00
0.00000000e+00
8.31577163e+02
8.39609699e+02
1.58218177e+03
1.09639879e+03
2.03150346e+03
1.25449833e+03
2.12503877e+03
2.24669350e+03
2.20994430e+03
2.20714205e+03
1.19910070e+03
2.15499823e+03
8.95510188e+02
2.23228732e+03
8.30429553e+02
2.17561062e+03
2.15752659e+03
1.28972261e+03
2.01961014e+03
0.00000000e+00
8.22430872e+02
0.00000000e+00
0.00000000e+00
2.23513763e+03
1.28700773e+03
1.92711008e+03
1.43565521e+03
1.55166054e+03
1.14325860e+03
1.54361589e+03
1.91869631e+03
7.64966433e+02
2.26698924e+03
2.18252604e+03
2.35292473e+03
4.94766503e+02
8.47623524e+02
2.32763250e+03
1.78164003e+03
1.03426619e+03
0.00000000e+00
8.14159587e+02
0.00000000e+00
2.04945059e+03
2.01598110e+03
1.84431097e+03
2.22977443e+03
2.00630003e+03
1.30565686e+03
1.04099735e+03
2.08927569e+03
1.82713310e+03
1.37907172e+03
2.12630851e+03
1.85290806e+03
5.61513438e+02
2.33208563e+03
2.36368888e+03
3.70981582e+02
1.95550180e+03
2.23247260e+03
7.63764739e+02
0.00000000e+00
0.00000000e+00
1.59623316e+03
2.19171614e+03
1.77854693e+03
1.90180258e+03
9.33843463e+02
2.27952906e+03
1.36092603e+03
2.29205886e+03
1.76672987e+03
4.48751338e+02
1.79814254e+03
1.82847680e+03
1.26603022e+03
1.96931366e+03
1.89575519e+03
1.64078719e+03
1.95096763e+03
1.51699727e+03
4.11975953e+02
1.10608356e+03
7.18434311e+02
2.12658908e+03
9.34444923e+02
2.20909484e+03
1.29832952e+03
1.37635893e+03
8.83158167e+02
1.14668866e+03
1.78572308e+03
2.28690941e+03
2.08116198e+03
1.44578500e+03
8.17342548e+02
1.01722062e+03
1.82263291e+03
7.29740484e+02
2.19910867e+03
2.26560011e+03
1.78277868e+03
1.32847476e+03
0.00000000e+00
5.20361322e+02
9.96356260e+02
1.49965060e+03
1.00707122e+03
1.09013183e+03
2.18233423e+03
2.13901813e+03
1.85475726e+03
9.24390041e+02
6.97449072e+02
8.08566013e+02
4.96495409e+02
4.51496925e+02
8.38744736e+02
1.56961582e+03
2.32694454e+03
2.29901595e+03
2.08246808e+03
1.83292907e+03
6.29053657e+02
0.00000000e+00
0.00000000e+00
1.17182567e+03
2.09410650e+03
1.96496919e+03
1.55014820e+03
1.67093730e+03
1.38193766e+03
2.18272812e+03
2.03264639e+03
1.36590191e+03
1.07537638e+03
2.27567972e+03
1.90248522e+03
1.52276387e+03
1.40881637e+03
2.24999313e+03
2.36235336e+03
2.28891544e+03
1.76726866e+03
1.25839126e+03
9.76441260e+02
0.00000000e+00
1.26585760e+03
8.62826327e+02
1.91183887e+03
2.19081193e+03
1.89585670e+03
1.53968637e+03
0.00000000e+00
5.07199506e+02
0.00000000e+00
6.88905880e+02
0.00000000e+00
0.00000000e+00
0.00000000e+00
7.73640191e+02
3.30441194e+02
1.31171525e+03
2.19690534e+02
2.09936958e+03
5.83741061e+02
7.59281601e+02
0.00000000e+00
0.00000000e+00
0.00000000e+00
0.00000000e+00
0.00000000e+00
8.34688391e+02
6.00989737e+02
0.00000000e+00
6.96480140e+02
0.00000000e+00
0.00000000e+00
0.00000000e+00
0.00000000e+00
0.00000000e+00
0.00000000e+00
0.00000000e+00
0.00000000e+00
0.00000000e+00
0.00000000e+00
5.45076124e+02
5.72377608e+02
0.00000000e+00
1.00087453e+03
0.00000000e+00
2.35489241e+03
1.34764158e+03
1.69775582e+03