# vtk DataFile Version 3.0
MPS 3D Simulation Step 300
ASCII
DATASET UNSTRUCTURED_GRID
POINTS 20213 double
-6.59251260e-04 9.96456590e-04 -6.59251260e-04
-5.97927715e-04 9.71355219e-04 -6.84352631e-04
-5.30424704e-04 9.45713524e-04 -7.09994327e-04
-4.61559395e-04 9.20428201e-04 -7.35279648e-04
-3.85795288e-04 8.83714563e-04 -7.71993287e-04
-3.29966360e-04 8.54136738e-04 -8.01571113e-04
-2.73766738e-04 8.36951770e-04 -8.18756082e-04
-2.07399144e-04 8.19730090e-04 -8.35977754e-04
-1.31750188e-04 8.05230947e-04 -8.50476915e-04
-6.34420499e-05 7.97588944e-04 -8.58118898e-04
-4.61229600e-16 7.94593481e-04 -8.61114376e-04
6.34420499e-05 7.97588945e-04 -8.58118899e-04
1.31750188e-04 8.05230945e-04 -8.50476913e-04
2.07399144e-04 8.19730091e-04 -8.35977755e-04
2.73766738e-04 8.36951770e-04 -8.18756082e-04
3.29966360e-04 8.54136738e-04 -8.01571113e-04
3.85795288e-04 8.83714564e-04 -7.71993287e-04
4.61559395e-04 9.20428201e-04 -7.35279648e-04
5.30424704e-04 9.45713524e-04 -7.09994327e-04
5.97927715e-04 9.71355219e-04 -6.84352631e-04
6.59251260e-04 9.96456590e-04 -6.59251260e-04
-6.84352631e-04 1.05778014e-03 -6.84352631e-04
-6.09792565e-04 1.04591528e-03 -7.35151013e-04
-5.37369127e-04 1.01924327e-03 -7.70290137e-04
-4.59989595e-04 9.86656303e-04 -7.94008198e-04
-4.11654388e-04 1.01969676e-03 -8.62551270e-04
-3.78997150e-04 9.48866377e-04 -8.32932573e-04
-3.14364766e-04 9.23592614e-04 -8.66756959e-04
-2.34383988e-04 8.94857727e-04 -8.88913967e-04
-1.67273362e-04 8.93397672e-04 -9.20734668e-04
-9.61136386e-05 8.70034581e-04 -9.11627682e-04
5.64087270e-14 8.63649950e-04 -9.10586384e-04
9.61136389e-05 8.70034581e-04 -9.11627682e-04
1.67273362e-04 8.93397672e-04 -9.20734668e-04
2.34383988e-04 8.94857727e-04 -8.88913967e-04
3.14364766e-04 9.23592614e-04 -8.66756959e-04
3.78997150e-04 9.48866377e-04 -8.32932573e-04
4.11654388e-04 1.01969676e-03 -8.62551270e-04
4.59989595e-04 9.86656303e-04 -7.94008198e-04
5.37369127e-04 1.01924327e-03 -7.70290137e-04
6.09792565e-04 1.04591528e-03 -7.35151013e-04
6.84352631e-04 1.05778014e-03 -6.84352631e-04
-7.09994327e-04 1.12528315e-03 -7.09994327e-04
-6.36464578e-04 1.11833872e-03 -7.70290137e-04
-5.63186055e-04 1.09252179e-03 -8.06248418e-04
-4.92616710e-04 1.06705487e-03 -8.40482689e-04
-4.51303258e-04 1.09689164e-03 -8.96233263e-04
-3.25621245e-04 9.99816221e-04 -9.14886274e-04
-2.69304635e-04 1.02975138e-03 -9.83193397e-04
-2.34196250e-04 9.61298940e-04 -9.42430438e-04
-1.96699337e-04 1.01801640e-03 -1.00726562e-03
-1.43805849e-04 1.05456572e-03 -1.05170136e-03
2.28735325e-14 1.05485022e-03 -1.06820743e-03
1.43805849e-04 1.05456572e-03 -1.05170136e-03
1.96699337e-04 1.01801640e-03 -1.00726562e-03
2.34196250e-04 9.61298940e-04 -9.42430438e-04
2.69304635e-04 1.02975138e-03 -9.83193397e-04
3.25621245e-04 9.99816221e-04 -9.14886274e-04
4.51303258e-04 1.09689164e-03 -8.96233263e-04
4.92616710e-04 1.06705487e-03 -8.40482689e-04
5.63186055e-04 1.09252179e-03 -8.06248418e-04
6.36464578e-04 1.11833872e-03 -7.70290137e-04
7.09994327e-04 1.12528315e-03 -7.09994327e-04
-7.35279648e-04 1.19414846e-03 -7.35279649e-04
-6.69051546e-04 1.19571826e-03 -7.94008198e-04
-5.88652978e-04 1.16309114e-03 -8.40482689e-04
-4.96039469e-04 1.15966838e-03 -9.07974435e-04
-4.14604176e-04 1.14391464e-03 -9.60226796e-04
-3.68249296e-04 1.07499060e-03 -9.42963296e-04
-3.12042432e-04 1.09315796e-03 -1.00224309e-03
-2.33050940e-04 1.08539989e-03 -1.04178160e-03
-1.66476475e-04 1.12123560e-03 -1.09171374e-03
-7.95776664e-05 1.08675647e-03 -1.08216986e-03
-7.81276094e-15 1.12066746e-03 -1.11700898e-03
7.95776664e-05 1.08675647e-03 -1.08216986e-03
1.66476475e-04 1.12123560e-03 -1.09171374e-03
2.33050941e-04 1.08539989e-03 -1.04178160e-03
3.12042432e-04 1.09315796e-03 -1.00224309e-03
3.68249296e-04 1.07499060e-03 -9.42963296e-04
4.14604176e-04 1.14391464e-03 -9.60226796e-04
4.96039469e-04 1.15966838e-03 -9.07974435e-04
5.88652978e-04 1.16309114e-03 -8.40482689e-04
6.69051546e-04 1.19571826e-03 -7.94008198e-04
7.35279648e-04 1.19414846e-03 -7.35279648e-04
-7.71993287e-04 1.26991256e-03 -7.71993287e-04
-6.36011091e-04 1.24405346e-03 -8.62551270e-04
-5.58816210e-04 1.20440459e-03 -8.96233263e-04
-5.11793209e-04 1.24110367e-03 -9.60226796e-04
-4.42301186e-04 1.21340666e-03 -9.92181272e-04
-3.59201327e-04 1.17392179e-03 -1.02462585e-03
-2.88415103e-04 1.15526296e-03 -1.05909867e-03
-2.25362722e-04 1.17820572e-03 -1.10447724e-03
-1.37093073e-04 1.17986312e-03 -1.13540474e-03
-6.01432687e-05 1.16729297e-03 -1.14248293e-03
4.08823710e-15 1.20874133e-03 -1.16786146e-03
6.01432687e-05 1.16729297e-03 -1.14248293e-03
1.37093073e-04 1.17986312e-03 -1.13540474e-03
2.25362722e-04 1.17820572e-03 -1.10447724e-03
2.88415103e-04 1.15526296e-03 -1.05909867e-03
3.59201327e-04 1.17392179e-03 -1.02462585e-03
4.42301186e-04 1.21340666e-03 -9.92181272e-04
5.11793209e-04 1.24110367e-03 -9.60226796e-04
5.58816210e-04 1.20440459e-03 -8.96233263e-04
6.36011091e-04 1.24405346e-03 -8.62551270e-04
7.71993287e-04 1.26991256e-03 -7.71993287e-04
-8.01571112e-04 1.32574149e-03 -8.01571113e-04
-7.06841473e-04 1.27671070e-03 -8.32932572e-04
-6.55891629e-04 1.33008660e-03 -9.14886274e-04
-5.80717250e-04 1.28745855e-03 -9.42963296e-04
-4.81786058e-04 1.29650652e-03 -1.02462585e-03
-3.44232068e-04 1.31147578e-03 -1.12675597e-03
-3.22875390e-04 1.22840288e-03 -1.08852973e-03
-2.79273182e-04 1.26323623e-03 -1.13168541e-03
-1.96900191e-04 1.25031780e-03 -1.15358012e-03
-9.14997332e-05 1.25629218e-03 -1.17922622e-03
1.03470265e-15 1.28216279e-03 -1.20632912e-03
9.14997332e-05 1.25629218e-03 -1.17922623e-03
1.96900191e-04 1.25031780e-03 -1.15358012e-03
2.79273182e-04 1.26323623e-03 -1.13168541e-03
3.22875390e-04 1.22840288e-03 -1.08852973e-03
3.44232068e-04 1.31147578e-03 -1.12675597e-03
4.81786058e-04 1.29650652e-03 -1.02462585e-03
5.80717250e-04 1.28745855e-03 -9.42963296e-04
6.55891629e-04 1.33008660e-03 -9.14886274e-04
7.06841473e-04 1.27671070e-03 -8.32932572e-04
8.01571112e-04 1.32574149e-03 -8.01571112e-04
-8.18756081e-04 1.38194111e-03 -8.18756081e-04
-7.32115236e-04 1.34134308e-03 -8.66756959e-04
-6.25956469e-04 1.38640322e-03 -9.83193397e-04
-5.62549890e-04 1.34366542e-03 -1.00224309e-03
-5.00444887e-04 1.36729275e-03 -1.05909867e-03
-4.27304967e-04 1.33283246e-03 -1.08852973e-03
-2.98409078e-04 1.35729877e-03 -1.16874297e-03
-2.25947995e-04 1.32753343e-03 -1.18504592e-03
-1.49908261e-04 1.31335476e-03 -1.19915384e-03
-7.59238992e-05 1.34479187e-03 -1.22963579e-03
-4.64698223e-15 1.35379871e-03 -1.23842014e-03
7.59238992e-05 1.34479187e-03 -1.22963579e-03
1.49908261e-04 1.31335476e-03 -1.19915384e-03
2.25947995e-04 1.32753343e-03 -1.18504592e-03
2.98409078e-04 1.35729877e-03 -1.16874297e-03
4.27304967e-04 1.33283246e-03 -1.08852973e-03
5.00444887e-04 1.36729275e-03 -1.05909867e-03
5.62549890e-04 1.34366542e-03 -1.00224309e-03
6.25956469e-04 1.38640322e-03 -9.83193397e-04
7.32115236e-04 1.34134308e-03 -8.66756959e-04
8.18756081e-04 1.38194111e-03 -8.18756081e-04
-8.35977757e-04 1.44830871e-03 -8.35977757e-04
-7.60850122e-04 1.42132386e-03 -8.88913967e-04
-6.94408910e-04 1.42151160e-03 -9.42430438e-04
-5.70307965e-04 1.42265691e-03 -1.04178160e-03
-4.77502130e-04 1.43034513e-03 -1.10447724e-03
-3.92471623e-04 1.37643467e-03 -1.13168541e-03
-3.28174416e-04 1.42975986e-03 -1.18504592e-03
-2.44426912e-04 1.41128094e-03 -1.21218509e-03
-1.57100447e-04 1.40175286e-03 -1.23497339e-03
-8.24932426e-05 1.42270577e-03 -1.25927159e-03
-1.12760302e-15 1.42252431e-03 -1.25981653e-03
8.24932426e-05 1.42270577e-03 -1.25927159e-03
1.57100447e-04 1.40175286e-03 -1.23497339e-03
2.44426912e-04 1.41128094e-03 -1.21218509e-03
3.28174416e-04 1.42975986e-03 -1.18504592e-03
3.92471623e-04 1.37643467e-03 -1.13168541e-03
4.77502130e-04 1.43034513e-03 -1.10447724e-03
5.70307965e-04 1.42265691e-03 -1.04178160e-03
6.94408910e-04 1.42151160e-03 -9.42430438e-04
7.60850122e-04 1.42132386e-03 -8.88913967e-04
8.35977757e-04 1.44830871e-03 -8.35977757e-04
-8.50476908e-04 1.52395766e-03 -8.50476910e-04
-7.62310178e-04 1.48843449e-03 -9.20734668e-04
-6.37691447e-04 1.45900851e-03 -1.00726562e-03
-5.34472248e-04 1.48923138e-03 -1.09171374e-03
-4.75844734e-04 1.51861478e-03 -1.13540474e-03
-4.05390046e-04 1.45880766e-03 -1.15358012e-03
-3.42353093e-04 1.50579959e-03 -1.19915384e-03
-2.53954990e-04 1.49860740e-03 -1.23497339e-03
-1.80372478e-04 1.47533537e-03 -1.25462934e-03
-9.36080681e-05 1.49249819e-03 -1.27127130e-03
6.30128732e-16 1.51139313e-03 -1.27116854e-03
9.36080681e-05 1.49249819e-03 -1.27127130e-03
1.80372478e-04 1.47533537e-03 -1.25462934e-03
2.53954990e-04 1.49860740e-03 -1.23497339e-03
3.42353093e-04 1.50579959e-03 -1.19915384e-03
4.05390046e-04 1.45880766e-03 -1.15358012e-03
4.75844734e-04 1.51861478e-03 -1.13540474e-03
5.34472248e-04 1.48923138e-03 -1.09171374e-03
6.37691447e-04 1.45900851e-03 -1.00726562e-03
7.62310178e-04 1.48843449e-03 -9.20734669e-04
8.50476908e-04 1.52395766e-03 -8.50476910e-04
-8.58118902e-04 1.59226580e-03 -8.58118902e-04
-7.85673269e-04 1.55959421e-03 -9.11627682e-04
-6.01142132e-04 1.51190200e-03 -1.05170136e-03
-5.68951382e-04 1.57613018e-03 -1.08216986e-03
-4.88414876e-04 1.59556458e-03 -1.14248293e-03
-3.99415674e-04 1.56420812e-03 -1.17922623e-03
-3.10915980e-04 1.57978395e-03 -1.22963579e-03
-2.33002079e-04 1.57321461e-03 -1.25927159e-03
-1.63209661e-04 1.56209978e-03 -1.27127130e-03
-8.73705497e-05 1.56833730e-03 -1.27552236e-03
1.89090803e-14 1.58746949e-03 -1.27206867e-03
8.73705497e-05 1.56833730e-03 -1.27552236e-03
1.63209661e-04 1.56209978e-03 -1.27127130e-03
2.33002079e-04 1.57321461e-03 -1.25927159e-03
3.10915980e-04 1.57978395e-03 -1.22963579e-03
3.99415674e-04 1.56420812e-03 -1.17922623e-03
4.88414876e-04 1.59556458e-03 -1.14248293e-03
5.68951382e-04 1.57613018e-03 -1.08216986e-03
6.01142132e-04 1.51190200e-03 -1.05170136e-03
7.85673269e-04 1.55959421e-03 -9.11627682e-04
8.58118902e-04 1.59226580e-03 -8.58118901e-04
-8.61114373e-04 1.65570785e-03 -8.61114373e-04
-7.92057900e-04 1.65570785e-03 -9.10586383e-04
[...]
POINT_DATA 20213
SCALARS pressure double 1
LOOKUP_TABLE default
0.00000000e+00
0.00000000e+00
0.00000000e+00
1.09812728e+03
1.29024697e+03
1.44188075e+03
1.41958094e+03
1.30335048e+03
1.14286514e+03
0.00000000e+00
0.00000000e+00
0.00000000e+00
1.14286514e+03
1.30335048e+03
1.41958094e+03
1.44188075e+03
1.29024697e+03
1.09812728e+03
0.00000000e+00
0.00000000e+00
0.00000000e+00
0.00000000e+00
0.00000000e+00
0.00000000e+00
8.90327289e+02
9.94491668e+02
1.32050077e+03
1.40075054e+03
1.28768674e+03
1.12551282e+03
0.00000000e+00
0.00000000e+00
0.00000000e+00
1.12551281e+03
1.28768674e+03
1.40075054e+03
1.32050077e+03
9.94491667e+02
8.90327289e+02
0.00000000e+00
0.00000000e+00
0.00000000e+00
0.00000000e+00
0.00000000e+00
0.00000000e+00
0.00000000e+00
0.00000000e+00
0.00000000e+00
9.79193128e+02
1.11202153e+03
1.14940109e+03
0.00000000e+00
0.00000000e+00
0.00000000e+00
1.14940108e+03
1.11202152e+03
9.79193130e+02
0.00000000e+00
0.00000000e+00
0.00000000e+00
0.00000000e+00
0.00000000e+00
0.00000000e+00
1.09812728e+03
8.90327288e+02
0.00000000e+00
0.00000000e+00
9.76083135e+02
0.00000000e+00
0.00000000e+00
9.40681582e+02
7.05366260e+02
0.00000000e+00
0.00000000e+00
0.00000000e+00
7.05366261e+02
9.40681582e+02
0.00000000e+00
0.00000000e+00
9.76083136e+02
0.00000000e+00
0.00000000e+00
8.90327289e+02
1.09812728e+03
1.29024697e+03
9.94491668e+02
0.00000000e+00
9.76083136e+02
1.02833933e+03
1.11321825e+03
1.00626072e+03
0.00000000e+00
0.00000000e+00
0.00000000e+00
0.00000000e+00
0.00000000e+00
0.00000000e+00
0.00000000e+00
1.00626072e+03
1.11321825e+03
1.02833933e+03
9.76083136e+02
0.00000000e+00
9.94491667e+02
1.29024697e+03
1.44188075e+03
1.32050077e+03
0.00000000e+00
0.00000000e+00
1.11321825e+03
8.80517555e+02
9.38957891e+02
0.00000000e+00
0.00000000e+00
0.00000000e+00
0.00000000e+00
0.00000000e+00
0.00000000e+00
0.00000000e+00
9.38957892e+02
8.80517555e+02
1.11321825e+03
0.00000000e+00
0.00000000e+00
1.32050077e+03
1.44188075e+03
1.41958094e+03
1.40075054e+03
9.79193129e+02
0.00000000e+00
1.00626072e+03
9.38957892e+02
6.31483790e+02
0.00000000e+00
0.00000000e+00
0.00000000e+00
7.58149965e+02
0.00000000e+00
0.00000000e+00
0.00000000e+00
6.31483790e+02
9.38957892e+02
1.00626072e+03
0.00000000e+00
9.79193131e+02
1.40075053e+03
1.41958094e+03
1.30335048e+03
1.28768674e+03
1.11202153e+03
9.40681583e+02
0.00000000e+00
0.00000000e+00
0.00000000e+00
0.00000000e+00
0.00000000e+00
0.00000000e+00
0.00000000e+00
0.00000000e+00
0.00000000e+00
0.00000000e+00
0.00000000e+00
0.00000000e+00
0.00000000e+00
9.40681582e+02
1.11202152e+03
1.28768674e+03
1.30335048e+03
1.14286514e+03
1.12551281e+03
1.14940109e+03
7.05366261e+02
0.00000000e+00
0.00000000e+00
0.00000000e+00
0.00000000e+00
0.00000000e+00
0.00000000e+00
0.00000000e+00
0.00000000e+00
0.00000000e+00
0.00000000e+00
0.00000000e+00
0.00000000e+00
0.00000000e+00
7.05366261e+02
1.14940108e+03
1.12551280e+03
1.14286514e+03
0.00000000e+00
0.00000000e+00
0.00000000e+00
0.00000000e+00
0.00000000e+00
0.00000000e+00
0.00000000e+00
0.00000000e+00
0.00000000e+00
0.00000000e+00
0.00000000e+00
0.00000000e+00
0.00000000e+00
0.00000000e+00
0.00000000e+00
0.00000000e+00
0.00000000e+00
0.00000000e+00
0.00000000e+00
0.00000000e+00
0.00000000e+00
0.00000000e+00
0.00000000e+00
0.00000000e+00
0.00000000e+00
0.00000000e+00
0.00000000e+00
7.58149962e+02
0.00000000e+00
0.00000000e+00
0.00000000e+00
6.14094271e+02
0.00000000e+00
0.00000000e+00
0.00000000e+00
7.58149961e+02
0.00000000e+00
0.00000000e+00
0.00000000e+00
0.00000000e+00
0.00000000e+00
0.00000000e+00
0.00000000e+00
0.00000000e+00
0.00000000e+00
0.00000000e+00
0.00000000e+00
0.00000000e+00
0.00000000e+00
0.00000000e+00
0.00000000e+00
0.00000000e+00
0.00000000e+00
0.00000000e+00
0.00000000e+00
0.00000000e+00
0.00000000e+00
0.00000000e+00
0.00000000e+00
0.00000000e+00
0.00000000e+00
0.00000000e+00
0.00000000e+00
1.14286514e+03
1.12551280e+03
1.14940108e+03
7.05366262e+02
0.00000000e+00
0.00000000e+00
0.00000000e+00
0.00000000e+00
0.00000000e+00
0.00000000e+00
0.00000000e+00
0.00000000e+00
0.00000000e+00
0.00000000e+00
0.00000000e+00
0.00000000e+00
0.00000000e+00
7.05366261e+02
1.14940108e+03
1.12551280e+03
1.14286514e+03
1.30335048e+03
1.28768674e+03
1.11202152e+03
9.40681582e+02
0.00000000e+00
0.00000000e+00
0.00000000e+00
0.00000000e+00
0.00000000e+00
0.00000000e+00
0.00000000e+00
0.00000000e+00
0.00000000e+00
0.00000000e+00
0.00000000e+00
0.00000000e+00
0.00000000e+00
9.40681582e+02
1.11202153e+03
1.28768674e+03
1.30335048e+03
1.41958094e+03
1.40075054e+03
9.79193132e+02
0.00000000e+00
1.00626072e+03
9.38957892e+02
6.31483794e+02
0.00000000e+00
0.00000000e+00
0.00000000e+00
7.58149962e+02
0.00000000e+00
0.00000000e+00
0.00000000e+00
6.31483794e+02
9.38957892e+02
1.00626072e+03
0.00000000e+00
9.79193128e+02
1.40075054e+03
1.41958094e+03
1.44188075e+03
1.32050077e+03
0.00000000e+00
0.00000000e+00
1.11321825e+03
8.80517554e+02
9.38957892e+02
0.00000000e+00
0.00000000e+00
0.00000000e+00
0.00000000e+00
0.00000000e+00
0.00000000e+00
0.00000000e+00
9.38957892e+02
8.80517553e+02
1.11321825e+03
0.00000000e+00
0.00000000e+00
1.32050077e+03
1.44188075e+03
1.29024697e+03
9.94491669e+02
0.00000000e+00
9.76083137e+02
1.02833933e+03
1.11321825e+03
1.00626072e+03
0.00000000e+00
0.00000000e+00
0.00000000e+00
0.00000000e+00
0.00000000e+00
0.00000000e+00
0.00000000e+00
1.00626072e+03
1.11321825e+03
1.02833933e+03
9.76083137e+02
0.00000000e+00
9.94491670e+02
1.29024697e+03
1.09812729e+03
8.90327285e+02
0.00000000e+00
0.00000000e+00
9.76083133e+02
0.00000000e+00
0.00000000e+00
9.40681589e+02
7.05366257e+02
0.00000000e+00
0.00000000e+00
0.00000000e+00
7.05366258e+02
9.40681588e+02
0.00000000e+00
0.00000000e+00
9.76083132e+02
0.00000000e+00
0.00000000e+00
8.90327285e+02
1.09812729e+03
0.00000000e+00
0.00000000e+00
0.00000000e+00
0.00000000e+00
0.00000000e+00
0.00000000e+00
9.79193126e+02
1.11202155e+03
1.14940111e+03
0.00000000e+00
0.00000000e+00
0.00000000e+00
1.14940111e+03
1.11202154e+03
9.79193133e+02
0.00000000e+00
0.00000000e+00
0.00000000e+00
0.00000000e+00
0.00000000e+00
0.00000000e+00
0.00000000e+00
0.00000000e+00
0.00000000e+00
8.90327285e+02
9.94491662e+02
1.32050076e+03
1.40075058e+03
1.28768676e+03
1.12551294e+03
0.00000000e+00
0.00000000e+00
0.00000000e+00
1.12551294e+03
1.28768677e+03
1.40075058e+03
1.32050076e+03
9.94491663e+02
8.90327282e+02
0.00000000e+00
0.00000000e+00
0.00000000e+00
0.00000000e+00
0.00000000e+00
0.00000000e+00
1.09812729e+03
1.29024697e+03
1.44188075e+03
1.41958094e+03
1.30335048e+03
1.14286514e+03
0.00000000e+00
0.00000000e+00
0.00000000e+00
1.14286514e+03
1.30335048e+03
1.41958094e+03
1.44188075e+03
1.29024697e+03
1.09812729e+03
0.00000000e+00
0.00000000e+00
0.00000000e+00
0.00000000e+00
0.00000000e+00
0.00000000e+00
8.90327289e+02
9.94491665e+02
1.32050077e+03
1.40075052e+03
1.28768674e+03
1.12551277e+03
0.00000000e+00
0.00000000e+00
0.00000000e+00
1.12551278e+03
1.28768674e+03
1.40075053e+03
1.32050077e+03
9.94491666e+02
8.90327288e+02
0.00000000e+00
0.00000000e+00
0.00000000e+00
0.00000000e+00
9.65668210e+02
9.15618197e+02
1.05540235e+03
1.21114949e+03
1.36458272e+03
1.42408116e+03
1.20964551e+03
1.38393314e+03
1.08227735e+03
1.36165114e+03
1.08227735e+03
1.38393314e+03
1.20964551e+03
1.42408116e+03
1.36458272e+03
1.21114949e+03
1.05540235e+03
9.15618197e+02
9.65668210e+02
0.00000000e+00
0.00000000e+00
9.15618197e+02
9.91650630e+02
9.79603984e+02
1.18471296e+03
1.23316136e+03
1.32385905e+03
0.00000000e+00
0.00000000e+00
0.00000000e+00
0.00000000e+00
0.00000000e+00
0.00000000e+00
0.00000000e+00
1.32385905e+03
1.23316136e+03
1.18471296e+03
9.79603984e+02
9.91650630e+02
9.15618197e+02
0.00000000e+00
8.90327288e+02
1.05540235e+03
9.79603985e+02
1.16316566e+03
9.87768748e+02
1.15153769e+03
1.20269933e+03
1.01281503e+03
1.18693011e+03
8.51513986e+02
1.12626745e+03
8.51513985e+02
1.18693011e+03
1.01281503e+03
1.20269933e+03
1.15153769e+03
9.87768748e+02
1.16316566e+03
9.79603985e+02
1.05540235e+03
8.90327288e+02
9.94491666e+02
1.21114949e+03
1.18471296e+03
9.87768749e+02
1.25226559e+03
1.13815137e+03
1.31691332e+03
9.38197817e+02
8.73808308e+02
6.46460748e+02
6.24440597e+02
6.46460748e+02
8.73808308e+02
9.38197817e+02
1.31691332e+03
1.13815137e+03
1.25226559e+03
9.87768749e+02
1.18471296e+03
1.21114949e+03
9.94491667e+02
1.32050077e+03
1.36458272e+03
1.23316136e+03
1.15153769e+03
1.13815137e+03
9.93643314e+02
1.12749288e+03
1.04530707e+03
7.61523887e+02
7.40268337e+02
6.77475336e+02
7.40268337e+02
7.61523887e+02
1.04530707e+03
1.12749288e+03
9.93643314e+02
1.13815137e+03
1.15153769e+03
1.23316136e+03
1.36458272e+03
1.32050077e+03
1.40075053e+03
1.42408116e+03
1.32385905e+03
1.20269933e+03
1.31691332e+03
1.12749288e+03
1.01011092e+03
7.41626012e+02
8.67821696e+02
6.55558993e+02
6.54081136e+02
6.55558993e+02
8.67821696e+02
7.41626012e+02
1.01011092e+03
1.12749288e+03
1.31691332e+03
1.20269933e+03
1.32385905e+03
1.42408116e+03
1.40075053e+03
1.28768674e+03
1.20964551e+03
0.00000000e+00
1.01281503e+03
9.38197817e+02
1.04530707e+03
7.41626012e+02
6.58001763e+02
1.04304829e+03
6.77672697e+02
8.06566124e+02
6.77672697e+02
1.04304829e+03
6.58001763e+02
7.41626012e+02
1.04530707e+03
9.38197817e+02
1.01281503e+03
0.00000000e+00
1.20964551e+03
1.28768674e+03
1.12551279e+03
1.38393314e+03
0.00000000e+00
1.18693011e+03
8.73808307e+02
7.61523887e+02
8.67821696e+02
1.04304829e+03
1.13613226e+03
9.65026908e+02
1.15215728e+03
9.65026908e+02
1.13613226e+03
1.04304829e+03
8.67821696e+02
7.61523887e+02
8.73808307e+02
1.18693011e+03
0.00000000e+00
1.38393314e+03
1.12551279e+03
0.00000000e+00
1.08227735e+03
0.00000000e+00
8.51513987e+02
6.46460748e+02
7.40268336e+02
6.55558992e+02
6.77672697e+02
9.65026908e+02
6.95838585e+02
9.27745167e+02
6.95838585e+02
9.65026908e+02
6.77672697e+02
6.55558992e+02
7.40268337e+02
6.46460748e+02
8.51513986e+02
0.00000000e+00
1.08227735e+03
0.00000000e+00
0.00000000e+00
1.36165114e+03
0.00000000e+00
1.12626745e+03
6.24440596e+02
6.77475336e+02
6.54081135e+02
8.06566124e+02
1.15215728e+03
9.27745167e+02
1.11577836e+03
9.27745167e+02
1.15215728e+03
8.06566123e+02
6.54081135e+02
6.77475336e+02
6.24440597e+02
1.12626745e+03
0.00000000e+00
1.36165114e+03
0.00000000e+00
0.00000000e+00
1.08227735e+03
0.00000000e+00
8.51513986e+02
6.46460748e+02
7.40268337e+02
6.55558993e+02
6.77672697e+02
9.65026908e+02
6.95838585e+02
9.27745167e+02
6.95838585e+02
9.65026908e+02
6.77672697e+02
6.55558992e+02
7.40268337e+02
6.46460748e+02
8.51513986e+02
0.00000000e+00
1.08227735e+03
0.00000000e+00
1.12551280e+03
1.38393315e+03
0.00000000e+00
1.18693011e+03
8.73808307e+02
7.61523887e+02
8.67821696e+02
1.04304829e+03
1.13613226e+03
9.65026908e+02
1.15215728e+03
9.65026908e+02
1.13613226e+03
1.04304829e+03
8.67821696e+02
7.61523887e+02
8.73808308e+02
1.18693011e+03
0.00000000e+00
1.38393315e+03
1.12551279e+03
1.28768674e+03
1.20964551e+03
0.00000000e+00
1.01281503e+03
9.38197817e+02
1.04530707e+03
7.41626012e+02
6.58001763e+02
1.04304829e+03
6.77672697e+02
8.06566123e+02
6.77672697e+02
1.04304829e+03
6.58001763e+02
7.41626012e+02
1.04530707e+03
9.38197818e+02
1.01281503e+03
0.00000000e+00
1.20964551e+03
1.28768675e+03
1.40075053e+03
1.42408116e+03
1.32385906e+03
1.20269933e+03
1.31691332e+03
1.12749288e+03
1.01011092e+03
7.41626012e+02
8.67821696e+02
6.55558993e+02
6.54081135e+02
6.55558993e+02
8.67821696e+02
7.41626012e+02
1.01011092e+03
1.12749288e+03
1.31691332e+03
1.20269933e+03
1.32385906e+03
1.42408116e+03
1.40075053e+03
1.32050077e+03
1.36458272e+03
1.23316136e+03
1.15153769e+03
1.13815137e+03
9.93643312e+02
1.12749288e+03
1.04530707e+03
7.61523888e+02
7.40268336e+02
6.77475336e+02
7.40268337e+02
7.61523887e+02
1.04530707e+03
1.12749288e+03
9.93643312e+02
1.13815137e+03
1.15153769e+03
1.23316136e+03
1.36458272e+03
1.32050077e+03
9.94491667e+02
1.21114949e+03
1.18471296e+03
9.87768750e+02
1.25226559e+03
1.13815137e+03
1.31691332e+03
9.38197815e+02
8.73808305e+02
6.46460751e+02
6.24440591e+02
6.46460750e+02
8.73808305e+02
9.38197814e+02
1.31691332e+03
1.13815137e+03
1.25226559e+03
9.87768751e+02
1.18471296e+03
1.21114949e+03
9.94491665e+02
8.90327288e+02
1.05540235e+03
9.79603985e+02
1.16316566e+03
9.87768746e+02
1.15153769e+03
1.20269935e+03
1.01281503e+03
1.18693010e+03
8.51514000e+02
1.12626744e+03
8.51514001e+02
1.18693010e+03
1.01281503e+03
1.20269934e+03
1.15153769e+03
9.87768745e+02
1.16316566e+03
9.79603985e+02
1.05540235e+03
8.90327287e+02
0.00000000e+00
9.15618198e+02
9.91650629e+02
9.79603984e+02
1.18471296e+03
1.23316136e+03
1.32385906e+03
0.00000000e+00
0.00000000e+00
0.00000000e+00
0.00000000e+00
0.00000000e+00
0.00000000e+00
0.00000000e+00
1.32385906e+03
1.23316136e+03
1.18471296e+03
9.79603983e+02
9.91650629e+02
9.15618198e+02
0.00000000e+00
0.00000000e+00
9.65668210e+02
9.15618197e+02
1.05540235e+03
1.21114949e+03
1.36458272e+03
1.42408116e+03
1.20964551e+03
1.38393314e+03
1.08227735e+03
1.36165114e+03
1.08227735e+03
1.38393314e+03
1.20964551e+03
1.42408116e+03
1.36458272e+03
1.21114949e+03
1.05540235e+03
9.15618197e+02
9.65668210e+02
0.00000000e+00
0.00000000e+00
0.00000000e+00
0.00000000e+00
8.90327291e+02
9.94491672e+02
1.32050078e+03
1.40075049e+03
1.28768672e+03
1.12551265e+03
0.00000000e+00
0.00000000e+00
0.00000000e+00
1.12551265e+03
1.28768672e+03
1.40075049e+03
1.32050079e+03
9.94491671e+02
8.90327295e+02
0.00000000e+00
0.00000000e+00
0.00000000e+00
0.00000000e+00
0.00000000e+00
0.00000000e+00
0.00000000e+00
0.00000000e+00
0.00000000e+00
9.79193134e+02
1.11202152e+03
1.14940108e+03
0.00000000e+00
0.00000000e+00
0.00000000e+00
1.14940108e+03
1.11202152e+03
9.79193132e+02
0.00000000e+00
0.00000000e+00
0.00000000e+00
0.00000000e+00
0.00000000e+00
0.00000000e+00
0.00000000e+00
9.15618197e+02
9.91650629e+02
9.79603984e+02
1.18471296e+03
1.23316136e+03
1.32385906e+03
0.00000000e+00
0.00000000e+00
0.00000000e+00
0.00000000e+00
0.00000000e+00
0.00000000e+00
0.00000000e+00
1.32385906e+03
1.23316136e+03
1.18471296e+03
9.79603984e+02
9.91650629e+02
9.15618197e+02
0.00000000e+00
0.00000000e+00
9.91650629e+02
1.24139194e+03
1.17339581e+03
1.41580804e+03
1.33149055e+03
1.37733784e+03
1.48294782e+03
1.46412887e+03
1.40211707e+03
1.49670314e+03
1.40211707e+03
1.46412887e+03
1.48294782e+03
1.37733784e+03
1.33149055e+03
1.41580804e+03
1.17339581e+03
1.24139194e+03
9.91650630e+02
0.00000000e+00
0.00000000e+00
9.79603985e+02
1.17339581e+03
1.29327354e+03
1.32807378e+03
1.26923875e+03
1.37195061e+03
1.42870113e+03
1.22413618e+03
1.01874984e+03
9.02991659e+02
1.01874984e+03
1.22413618e+03
1.42870112e+03
1.37195061e+03
1.26923875e+03
1.32807378e+03
1.29327354e+03
1.17339581e+03
9.79603985e+02
0.00000000e+00
0.00000000e+00
1.18471296e+03
1.41580804e+03
1.32807378e+03
1.61445351e+03
1.52035880e+03
1.41081349e+03
1.24699236e+03
1.41318706e+03
1.30428746e+03
1.36132504e+03
1.30428746e+03
1.41318706e+03
1.24699236e+03
1.41081349e+03
1.52035880e+03
1.61445351e+03
1.32807378e+03
1.41580804e+03
1.18471296e+03
0.00000000e+00
0.00000000e+00
1.23316136e+03
1.33149055e+03
1.26923875e+03
1.52035880e+03
1.34441591e+03
1.29308952e+03
1.22329728e+03
1.35018873e+03
1.14572123e+03
1.40515233e+03
1.14572123e+03
1.35018873e+03
1.22329728e+03
1.29308952e+03
1.34441591e+03
1.52035880e+03
1.26923875e+03
1.33149055e+03
1.23316136e+03
0.00000000e+00
9.79193133e+02
1.32385906e+03
1.37733784e+03
1.37195061e+03
1.41081349e+03
1.29308952e+03
1.11445365e+03
1.12358925e+03
1.21574751e+03
9.87562896e+02
9.38790360e+02
9.87562896e+02
1.21574751e+03
1.12358925e+03
1.11445365e+03
1.29308952e+03
1.41081349e+03
1.37195061e+03
1.37733784e+03
1.32385906e+03
9.79193131e+02
1.11202152e+03
0.00000000e+00
1.48294782e+03
1.42870112e+03
1.24699236e+03
1.22329728e+03
1.12358925e+03
1.00477931e+03
1.16422241e+03
1.14846732e+03
9.69934992e+02
1.14846732e+03
1.16422241e+03
1.00477931e+03
1.12358925e+03
1.22329728e+03
1.24699236e+03
1.42870112e+03
1.48294782e+03
0.00000000e+00
1.11202152e+03
1.14940108e+03
0.00000000e+00
1.46412887e+03
1.22413618e+03
1.41318706e+03
1.35018873e+03
1.21574751e+03
1.16422241e+03
1.31898661e+03
1.24802951e+03
1.30675575e+03
1.24802951e+03
1.31898661e+03
1.16422241e+03
1.21574751e+03
1.35018873e+03
1.41318706e+03
1.22413618e+03
1.46412887e+03
0.00000000e+00
1.14940108e+03
0.00000000e+00
0.00000000e+00
1.40211707e+03
1.01874983e+03
1.30428746e+03
1.14572123e+03
9.87562896e+02
1.14846732e+03
1.24802951e+03
1.15889438e+03
1.23689356e+03
1.15889438e+03
1.24802951e+03
1.14846732e+03
9.87562896e+02
1.14572123e+03
1.30428745e+03
1.01874983e+03
1.40211707e+03
0.00000000e+00
0.00000000e+00
0.00000000e+00
0.00000000e+00
1.49670314e+03
9.02991656e+02
1.36132503e+03
1.40515233e+03
9.38790360e+02
9.69934992e+02
1.30675575e+03
1.23689356e+03
1.22260325e+03
1.23689356e+03
1.30675575e+03
9.69934992e+02
9.38790359e+02
1.40515234e+03
1.36132504e+03
9.02991656e+02
1.49670314e+03
0.00000000e+00
0.00000000e+00
0.00000000e+00
0.00000000e+00
1.40211707e+03
1.01874983e+03
1.30428746e+03
1.14572123e+03
9.87562896e+02
1.14846732e+03
1.24802951e+03
1.15889438e+03
1.23689356e+03
1.15889438e+03
1.24802951e+03
1.14846732e+03
9.87562896e+02
1.14572123e+03
1.30428746e+03
1.01874984e+03
1.40211707e+03
0.00000000e+00
0.00000000e+00
1.14940108e+03
0.00000000e+00
1.46412887e+03
1.22413617e+03
1.41318706e+03
1.35018873e+03
1.21574751e+03
1.16422241e+03
1.31898661e+03
1.24802952e+03
1.30675575e+03
1.24802952e+03
1.31898661e+03
1.16422241e+03
1.21574751e+03
1.35018873e+03
1.41318705e+03
1.22413618e+03
1.46412887e+03
0.00000000e+00
1.14940108e+03
1.11202152e+03
0.00000000e+00
1.48294782e+03
1.42870112e+03
1.24699236e+03
1.22329728e+03
1.12358925e+03
1.00477931e+03
1.16422241e+03
1.14846732e+03
9.69934993e+02
1.14846732e+03
1.16422241e+03
1.00477931e+03
1.12358925e+03
1.22329728e+03
1.24699236e+03
1.42870112e+03
1.48294782e+03
0.00000000e+00
1.11202152e+03
9.79193129e+02
1.32385906e+03
1.37733784e+03
1.37195061e+03
1.41081349e+03
1.29308952e+03
1.11445365e+03
1.12358925e+03
1.21574751e+03
9.87562898e+02
9.38790362e+02
9.87562898e+02
1.21574751e+03
1.12358925e+03
1.11445365e+03
1.29308952e+03
1.41081349e+03
1.37195061e+03
1.37733784e+03
1.32385906e+03
9.79193133e+02
0.00000000e+00
1.23316136e+03
1.33149055e+03
1.26923875e+03
1.52035880e+03
1.34441592e+03
1.29308952e+03
1.22329728e+03
1.35018874e+03
1.14572123e+03
1.40515233e+03
1.14572123e+03
1.35018874e+03
1.22329728e+03
1.29308952e+03
1.34441592e+03
1.52035880e+03
1.26923876e+03
1.33149055e+03
1.23316136e+03
0.00000000e+00
0.00000000e+00
1.18471296e+03
1.41580804e+03
1.32807378e+03
1.61445351e+03
1.52035880e+03
1.41081349e+03
1.24699236e+03
1.41318705e+03
1.30428746e+03
1.36132503e+03
1.30428746e+03
1.41318706e+03
1.24699235e+03
1.41081348e+03
1.52035880e+03
1.61445352e+03
1.32807378e+03
1.41580804e+03
1.18471296e+03
0.00000000e+00
0.00000000e+00
9.79603985e+02
1.17339581e+03
1.29327354e+03
1.32807378e+03
1.26923875e+03
1.37195061e+03
1.42870113e+03
1.22413620e+03
1.01874983e+03
9.02991668e+02
1.01874983e+03
1.22413620e+03
1.42870113e+03
1.37195061e+03
1.26923875e+03
1.32807378e+03
1.29327354e+03
1.17339581e+03
9.79603985e+02
0.00000000e+00
0.00000000e+00
9.91650629e+02
1.24139194e+03
1.17339581e+03
1.41580804e+03
1.33149055e+03
1.37733784e+03
1.48294782e+03
1.46412887e+03
1.40211707e+03
1.49670314e+03
1.40211707e+03
1.46412887e+03
1.48294782e+03
1.37733784e+03
1.33149055e+03
1.41580804e+03
1.17339581e+03
1.24139194e+03
9.91650629e+02
0.00000000e+00
0.00000000e+00
9.15618197e+02
9.91650629e+02
9.79603985e+02
1.18471296e+03
1.23316136e+03
1.32385905e+03
0.00000000e+00
0.00000000e+00
0.00000000e+00
0.00000000e+00
0.00000000e+00
0.00000000e+00
0.00000000e+00
1.32385905e+03
1.23316136e+03
1.18471296e+03
9.79603985e+02
9.91650630e+02
9.15618197e+02
0.00000000e+00
0.00000000e+00
0.00000000e+00
0.00000000e+00
0.00000000e+00
0.00000000e+00
0.00000000e+00
9.79193136e+02
1.11202150e+03
1.14940106e+03
0.00000000e+00
0.00000000e+00
0.00000000e+00
1.14940106e+03
1.11202150e+03
9.79193129e+02
0.00000000e+00
0.00000000e+00
0.00000000e+00
0.00000000e+00
0.00000000e+00
0.00000000e+00
1.09812728e+03
8.90327288e+02
0.00000000e+00
0.00000000e+00
9.76083137e+02
0.00000000e+00