# vtk DataFile Version 3.0
MPS Simulation Step 550
ASCII
DATASET UNSTRUCTURED_GRID
POINTS 100 double
-4.30238022e-02 -4.30238022e-02 0.0
-2.76773206e-02 -5.51737755e-02 0.0
-1.57639021e-02 -5.90895556e-02 0.0
-1.43488796e-02 -4.76700164e-02 0.0
-5.23059102e-03 -5.32104770e-02 0.0
5.23059102e-03 -5.32104770e-02 0.0
1.43488796e-02 -4.76700164e-02 0.0
1.57639021e-02 -5.90895556e-02 0.0
2.76773206e-02 -5.51737755e-02 0.0
4.30238022e-02 -4.30238022e-02 0.0
-5.51737755e-02 -2.76773206e-02 0.0
-2.64153968e-02 -2.64153968e-02 0.0
-2.48675067e-02 -3.64525179e-02 0.0
-1.66391575e-02 -1.92760570e-02 0.0
-1.80482472e-02 -4.61729494e-02 0.0
1.80482472e-02 -4.61729494e-02 0.0
1.66391576e-02 -1.92760576e-02 0.0
2.48675067e-02 -3.64525179e-02 0.0
2.64153968e-02 -2.64153968e-02 0.0
5.51737755e-02 -2.76773206e-02 0.0
-5.90895556e-02 -1.57639021e-02 0.0
-3.64525179e-02 -2.48675067e-02 0.0
-2.52887196e-02 -2.52887196e-02 0.0
-1.26141051e-02 -1.92220090e-02 0.0
-1.29295937e-02 -2.24332583e-02 0.0
1.29295941e-02 -2.24332584e-02 0.0
1.26141059e-02 -1.92220107e-02 0.0
2.52887196e-02 -2.52887196e-02 0.0
3.64525179e-02 -2.48675067e-02 0.0
5.90895556e-02 -1.57639021e-02 0.0
-4.76700164e-02 -1.43488796e-02 0.0
-1.92760570e-02 -1.66391575e-02 0.0
-1.92220090e-02 -1.26141051e-02 0.0
-1.28830610e-02 -1.28830610e-02 0.0
-2.21627789e-03 -1.59787700e-02 0.0
2.23251772e-03 -1.61009186e-02 0.0
1.28867711e-02 -1.28867711e-02 0.0
1.92220107e-02 -1.26141059e-02 0.0
1.92760576e-02 -1.66391576e-02 0.0
4.76700164e-02 -1.43488796e-02 0.0
-5.32104770e-02 -5.23059102e-03 0.0
-4.61729494e-02 -1.80482472e-02 0.0
-2.24332583e-02 -1.29295937e-02 0.0
-1.59787700e-02 -2.21627789e-03 0.0
-2.88346997e-03 -2.88346997e-03 0.0
1.97419162e-03 -1.97419162e-03 0.0
1.61009186e-02 -2.23251772e-03 0.0
2.24332584e-02 -1.29295941e-02 0.0
4.61729494e-02 -1.80482472e-02 0.0
5.32104770e-02 -5.23059102e-03 0.0
-5.32104770e-02 5.23059102e-03 0.0
-4.61729494e-02 1.80482472e-02 0.0
-2.24332584e-02 1.29295941e-02 0.0
-1.61009186e-02 2.23251772e-03 0.0
-1.97419162e-03 1.97419162e-03 0.0
2.88346997e-03 2.88346997e-03 0.0
1.59787700e-02 2.21627789e-03 0.0
2.24332583e-02 1.29295937e-02 0.0
4.61729494e-02 1.80482472e-02 0.0
5.32104770e-02 5.23059102e-03 0.0
-4.76700164e-02 1.43488796e-02 0.0
-1.92760576e-02 1.66391576e-02 0.0
-1.92220107e-02 1.26141059e-02 0.0
-1.28867711e-02 1.28867711e-02 0.0
-2.23251772e-03 1.61009186e-02 0.0
2.21627789e-03 1.59787700e-02 0.0
1.28830610e-02 1.28830610e-02 0.0
1.92220090e-02 1.26141051e-02 0.0
1.92760570e-02 1.66391575e-02 0.0
4.76700164e-02 1.43488796e-02 0.0
-5.90895556e-02 1.57639021e-02 0.0
-3.64525179e-02 2.48675067e-02 0.0
-2.52887196e-02 2.52887196e-02 0.0
-1.26141059e-02 1.92220107e-02 0.0
-1.29295941e-02 2.24332584e-02 0.0
1.29295937e-02 2.24332583e-02 0.0
1.26141051e-02 1.92220090e-02 0.0
2.52887196e-02 2.52887196e-02 0.0
3.64525179e-02 2.48675067e-02 0.0
5.90895556e-02 1.57639021e-02 0.0
-5.51737755e-02 2.76773206e-02 0.0
-2.64153968e-02 2.64153968e-02 0.0
-2.48675067e-02 3.64525179e-02 0.0
-1.66391576e-02 1.92760576e-02 0.0
-1.80482472e-02 4.61729494e-02 0.0
1.80482472e-02 4.61729494e-02 0.0
1.66391575e-02 1.92760570e-02 0.0
2.48675067e-02 3.64525179e-02 0.0
2.64153968e-02 2.64153968e-02 0.0
5.51737755e-02 2.76773206e-02 0.0
-4.30238022e-02 4.30238022e-02 0.0
-2.76773206e-02 5.51737755e-02 0.0
-1.57639021e-02 5.90895556e-02 0.0
-1.43488796e-02 4.76700164e-02 0.0
-5.23059102e-03 5.32104770e-02 0.0
5.23059102e-03 5.32104770e-02 0.0
1.43488796e-02 4.76700164e-02 0.0
1.57639021e-02 5.90895556e-02 0.0
2.76773206e-02 5.51737755e-02 0.0
4.30238022e-02 4.30238022e-02 0.0
CELLS 100 200
1 0
1 1
1 2
1 3
1 4
1 5
1 6
1 7
1 8
1 9
1 10
1 11
1 12
1 13
1 14
1 15
1 16
1 17
1 18
1 19
1 20
1 21
1 22
1 23
1 24
1 25
1 26
1 27
1 28
1 29
1 30
1 31
1 32
1 33
1 34
1 35
1 36
1 37
1 38
1 39
1 40
1 41
1 42
1 43
1 44
1 45
1 46
1 47
1 48
1 49
1 50
1 51
1 52
1 53
1 54
1 55
1 56
1 57
1 58
1 59
1 60
1 61
1 62
1 63
1 64
1 65
1 66
1 67
1 68
1 69
1 70
1 71
1 72
1 73
1 74
1 75
1 76
1 77
1 78
1 79
1 80
1 81
1 82
1 83
1 84
1 85
1 86
1 87
1 88
1 89
1 90
1 91
1 92
1 93
1 94
1 95
1 96
1 97
1 98
1 99
CELL_TYPES 100
1
1
1
1
1
1
1
1
1
1
1
1
1
1
1
1
1
1
1
1
1
1
1
1
1
1
1
1
1
1
1
1
1
1
1
1
1
1
1
1
1
1
1
1
1
1
1
1
1
1
1
1
1
1
1
1
1
1
1
1
1
1
1
1
1
1
1
1
1
1
1
1
1
1
1
1
1
1
1
1
1
1
1
1
1
1
1
1
1
1
1
1
1
1
1
1
1
1
1
1
POINT_DATA 100
SCALARS pressure double 1
LOOKUP_TABLE default
0.00000000e+00
0.00000000e+00
0.00000000e+00
0.00000000e+00
0.00000000e+00
0.00000000e+00
0.00000000e+00
0.00000000e+00
0.00000000e+00
0.00000000e+00
0.00000000e+00
0.00000000e+00
0.00000000e+00
0.00000000e+00
0.00000000e+00
0.00000000e+00
0.00000000e+00
0.00000000e+00
0.00000000e+00
0.00000000e+00
0.00000000e+00
0.00000000e+00
0.00000000e+00
0.00000000e+00
0.00000000e+00
0.00000000e+00
0.00000000e+00
0.00000000e+00
0.00000000e+00
0.00000000e+00
0.00000000e+00
0.00000000e+00
0.00000000e+00
0.00000000e+00
0.00000000e+00
0.00000000e+00
0.00000000e+00
0.00000000e+00
0.00000000e+00
0.00000000e+00
0.00000000e+00
0.00000000e+00
0.00000000e+00
0.00000000e+00
0.00000000e+00
0.00000000e+00
0.00000000e+00
0.00000000e+00
0.00000000e+00
0.00000000e+00
0.00000000e+00
0.00000000e+00
0.00000000e+00
0.00000000e+00
0.00000000e+00
0.00000000e+00
0.00000000e+00
0.00000000e+00
0.00000000e+00
0.00000000e+00
0.00000000e+00
0.00000000e+00
0.00000000e+00
0.00000000e+00
0.00000000e+00
0.00000000e+00
0.00000000e+00
0.00000000e+00
0.00000000e+00
0.00000000e+00
0.00000000e+00
0.00000000e+00
0.00000000e+00
0.00000000e+00
0.00000000e+00
0.00000000e+00
0.00000000e+00
0.00000000e+00
0.00000000e+00
0.00000000e+00
0.00000000e+00
0.00000000e+00
0.00000000e+00
0.00000000e+00
0.00000000e+00
0.00000000e+00
0.00000000e+00
0.00000000e+00
0.00000000e+00
0.00000000e+00
0.00000000e+00
0.00000000e+00
0.00000000e+00
0.00000000e+00
0.00000000e+00
0.00000000e+00
0.00000000e+00
0.00000000e+00
0.00000000e+00
0.00000000e+00
SCALARS type int 1
LOOKUP_TABLE default
0
0
0
0
0
0
0
0
0
0
0
0
0
0
0
0
0
0
0
0
0
0
0
0
0
0
0
0
0
0
0
0
0
0
0
0
0
0
0
0
0
0
0
0
0
0
0
0
0
0
0
0
0
0
0
0
0
0
0
0
0
0
0
0
0
0
0
0
0
0
0
0
0
0
0
0
0
0
0
0
0
0
0
0
0
0
0
0
0
0
0
0
0
0
0
0
0
0
0
0
VECTORS velocity double
-6.32866138e-01 -6.32866138e-01 0.0
-3.97072407e-01 -8.71619524e-01 0.0
-2.13875645e-01 -9.54240674e-01 0.0
-2.30308382e-01 -7.76577091e-01 0.0
-8.82606736e-02 -8.55483546e-01 0.0
8.82606736e-02 -8.55483546e-01 0.0
2.30308382e-01 -7.76577091e-01 0.0
2.13875645e-01 -9.54240674e-01 0.0
3.97072407e-01 -8.71619524e-01 0.0
6.32866138e-01 -6.32866138e-01 0.0
-8.71619524e-01 -3.97072407e-01 0.0
-4.23899527e-01 -4.23899527e-01 0.0
-4.43288835e-01 -5.91269900e-01 0.0
-3.36486215e-01 -2.51740216e-01 0.0
-3.72262161e-01 -7.57523952e-01 0.0
3.72262161e-01 -7.57523952e-01 0.0
3.36486193e-01 -2.51740245e-01 0.0
4.43288835e-01 -5.91269900e-01 0.0
4.23899527e-01 -4.23899527e-01 0.0
8.71619524e-01 -3.97072407e-01 0.0
-9.54240674e-01 -2.13875645e-01 0.0
-5.91269900e-01 -4.43288835e-01 0.0
-4.02347414e-01 -4.02347414e-01 0.0
-2.25833814e-01 -2.96784486e-01 0.0
-2.52662806e-01 -3.59365551e-01 0.0
2.52662820e-01 -3.59365551e-01 0.0
2.25833878e-01 -2.96784551e-01 0.0
4.02347414e-01 -4.02347414e-01 0.0
5.91269900e-01 -4.43288835e-01 0.0
9.54240674e-01 -2.13875645e-01 0.0
-7.76577091e-01 -2.30308382e-01 0.0
-2.51740216e-01 -3.36486215e-01 0.0
-2.96784486e-01 -2.25833814e-01 0.0
-2.45096420e-01 -2.45096420e-01 0.0
-6.75299015e-02 -3.95974549e-01 0.0
6.80433122e-02 -4.00645385e-01 0.0
2.45213721e-01 -2.45213721e-01 0.0
2.96784551e-01 -2.25833878e-01 0.0
2.51740245e-01 -3.36486193e-01 0.0
7.76577091e-01 -2.30308382e-01 0.0
-8.55483546e-01 -8.82606736e-02 0.0
-7.57523952e-01 -3.72262161e-01 0.0
-3.59365551e-01 -2.52662806e-01 0.0
-3.95974549e-01 -6.75299015e-02 0.0
-7.31339777e-02 -7.31339777e-02 0.0
4.44865157e-02 -4.44865157e-02 0.0
4.00645385e-01 -6.80433122e-02 0.0
3.59365551e-01 -2.52662820e-01 0.0
7.57523952e-01 -3.72262161e-01 0.0
8.55483546e-01 -8.82606736e-02 0.0
-8.55483546e-01 8.82606736e-02 0.0
-7.57523952e-01 3.72262161e-01 0.0
-3.59365551e-01 2.52662820e-01 0.0
-4.00645385e-01 6.80433122e-02 0.0
-4.44865157e-02 4.44865157e-02 0.0
7.31339777e-02 7.31339777e-02 0.0
3.95974549e-01 6.75299015e-02 0.0
3.59365551e-01 2.52662806e-01 0.0
7.57523952e-01 3.72262161e-01 0.0
8.55483546e-01 8.82606736e-02 0.0
-7.76577091e-01 2.30308382e-01 0.0
-2.51740245e-01 3.36486193e-01 0.0
-2.96784551e-01 2.25833878e-01 0.0
-2.45213721e-01 2.45213721e-01 0.0
-6.80433122e-02 4.00645385e-01 0.0
6.75299015e-02 3.95974549e-01 0.0
2.45096420e-01 2.45096420e-01 0.0
2.96784486e-01 2.25833814e-01 0.0
2.51740216e-01 3.36486215e-01 0.0
7.76577091e-01 2.30308382e-01 0.0
-9.54240674e-01 2.13875645e-01 0.0
-5.91269900e-01 4.43288835e-01 0.0
-4.02347414e-01 4.02347414e-01 0.0
-2.25833878e-01 2.96784551e-01 0.0
-2.52662820e-01 3.59365551e-01 0.0
2.52662806e-01 3.59365551e-01 0.0
2.25833814e-01 2.96784486e-01 0.0
4.02347414e-01 4.02347414e-01 0.0
5.91269900e-01 4.43288835e-01 0.0
9.54240674e-01 2.13875645e-01 0.0
-8.71619524e-01 3.97072407e-01 0.0
-4.23899527e-01 4.23899527e-01 0.0
-4.43288835e-01 5.91269900e-01 0.0
-3.36486193e-01 2.51740245e-01 0.0
-3.72262161e-01 7.57523952e-01 0.0
3.72262161e-01 7.57523952e-01 0.0
3.36486215e-01 2.51740216e-01 0.0
4.43288835e-01 5.91269900e-01 0.0
4.23899527e-01 4.23899527e-01 0.0
8.71619524e-01 3.97072407e-01 0.0
-6.32866138e-01 6.32866138e-01 0.0
-3.97072407e-01 8.71619524e-01 0.0
-2.13875645e-01 9.54240674e-01 0.0
-2.30308382e-01 7.76577091e-01 0.0
-8.82606736e-02 8.55483546e-01 0.0
8.82606736e-02 8.55483546e-01 0.0
2.30308382e-01 7.76577091e-01 0.0
2.13875645e-01 9.54240674e-01 0.0
3.97072407e-01 8.71619524e-01 0.0
6.32866138e-01 6.32866138e-01 0.0
