# vtk DataFile Version 3.0
MPS Simulation Step 200
ASCII
DATASET UNSTRUCTURED_GRID
POINTS 100 double
-2.08734874e-02 -2.08734874e-02 0.0
-1.37797106e-02 -2.46671263e-02 0.0
-8.27833483e-03 -2.56909149e-02 0.0
-6.26988814e-03 -2.11830214e-02 0.0
-2.14146248e-03 -2.32683857e-02 0.0
2.14146248e-03 -2.32683857e-02 0.0
6.26988814e-03 -2.11830214e-02 0.0
8.27833483e-03 -2.56909149e-02 0.0
1.37797106e-02 -2.46671263e-02 0.0
2.08734874e-02 -2.08734874e-02 0.0
-2.46671263e-02 -1.37797106e-02 0.0
-1.26106130e-02 -1.26106130e-02 0.0
-9.35218619e-03 -1.57575847e-02 0.0
-4.98848572e-03 -1.05403406e-02 0.0
-5.03695903e-03 -1.89666343e-02 0.0
5.03695903e-03 -1.89666343e-02 0.0
4.98848572e-03 -1.05403406e-02 0.0
9.35218619e-03 -1.57575847e-02 0.0
1.26106130e-02 -1.26106130e-02 0.0
2.46671263e-02 -1.37797106e-02 0.0
-2.56909149e-02 -8.27833483e-03 0.0
-1.57575847e-02 -9.35218619e-03 0.0
-1.01751753e-02 -1.01751753e-02 0.0
-4.71849325e-03 -8.83568043e-03 0.0
-3.94991063e-03 -9.77999645e-03 0.0
3.94991063e-03 -9.77999645e-03 0.0
4.71849324e-03 -8.83568043e-03 0.0
1.01751753e-02 -1.01751753e-02 0.0
1.57575847e-02 -9.35218619e-03 0.0
2.56909149e-02 -8.27833483e-03 0.0
-2.11830214e-02 -6.26988814e-03 0.0
-1.05403406e-02 -4.98848572e-03 0.0
-8.83568043e-03 -4.71849325e-03 0.0
-4.61416328e-03 -4.61416328e-03 0.0
-2.43464778e-03 -3.28474128e-03 0.0
2.43464779e-03 -3.28474130e-03 0.0
4.61416328e-03 -4.61416328e-03 0.0
8.83568043e-03 -4.71849324e-03 0.0
1.05403406e-02 -4.98848572e-03 0.0
2.11830214e-02 -6.26988814e-03 0.0
-2.32683857e-02 -2.14146248e-03 0.0
-1.89666343e-02 -5.03695903e-03 0.0
-9.77999645e-03 -3.94991063e-03 0.0
-3.28474128e-03 -2.43464778e-03 0.0
-6.43331218e-04 -6.43331218e-04 0.0
6.43330824e-04 -6.43330824e-04 0.0
3.28474130e-03 -2.43464779e-03 0.0
9.77999645e-03 -3.94991063e-03 0.0
1.89666343e-02 -5.03695903e-03 0.0
2.32683857e-02 -2.14146248e-03 0.0
-2.32683857e-02 2.14146248e-03 0.0
-1.89666343e-02 5.03695903e-03 0.0
-9.77999645e-03 3.94991063e-03 0.0
-3.28474130e-03 2.43464779e-03 0.0
-6.43330824e-04 6.43330824e-04 0.0
6.43331218e-04 6.43331218e-04 0.0
3.28474128e-03 2.43464778e-03 0.0
9.77999645e-03 3.94991063e-03 0.0
1.89666343e-02 5.03695903e-03 0.0
2.32683857e-02 2.14146248e-03 0.0
-2.11830214e-02 6.26988814e-03 0.0
-1.05403406e-02 4.98848572e-03 0.0
-8.83568043e-03 4.71849324e-03 0.0
-4.61416328e-03 4.61416328e-03 0.0
-2.43464779e-03 3.28474130e-03 0.0
2.43464778e-03 3.28474128e-03 0.0
4.61416328e-03 4.61416328e-03 0.0
8.83568043e-03 4.71849325e-03 0.0
1.05403406e-02 4.98848572e-03 0.0
2.11830214e-02 6.26988814e-03 0.0
-2.56909149e-02 8.27833483e-03 0.0
-1.57575847e-02 9.35218619e-03 0.0
-1.01751753e-02 1.01751753e-02 0.0
-4.71849324e-03 8.83568043e-03 0.0
-3.94991063e-03 9.77999645e-03 0.0
3.94991063e-03 9.77999645e-03 0.0
4.71849325e-03 8.83568043e-03 0.0
1.01751753e-02 1.01751753e-02 0.0
1.57575847e-02 9.35218619e-03 0.0
2.56909149e-02 8.27833483e-03 0.0
-2.46671263e-02 1.37797106e-02 0.0
-1.26106130e-02 1.26106130e-02 0.0
-9.35218619e-03 1.57575847e-02 0.0
-4.98848572e-03 1.05403406e-02 0.0
-5.03695903e-03 1.89666343e-02 0.0
5.03695903e-03 1.89666343e-02 0.0
4.98848572e-03 1.05403406e-02 0.0
9.35218619e-03 1.57575847e-02 0.0
1.26106130e-02 1.26106130e-02 0.0
2.46671263e-02 1.37797106e-02 0.0
-2.08734874e-02 2.08734874e-02 0.0
-1.37797106e-02 2.46671263e-02 0.0
-8.27833483e-03 2.56909149e-02 0.0
-6.26988814e-03 2.11830214e-02 0.0
-2.14146248e-03 2.32683857e-02 0.0
2.14146248e-03 2.32683857e-02 0.0
6.26988814e-03 2.11830214e-02 0.0
8.27833483e-03 2.56909149e-02 0.0
1.37797106e-02 2.46671263e-02 0.0
2.08734874e-02 2.08734874e-02 0.0
CELLS 100 200
1 0
1 1
1 2
1 3
1 4
1 5
1 6
1 7
1 8
1 9
1 10
1 11
1 12
1 13
1 14
1 15
1 16
1 17
1 18
1 19
1 20
1 21
1 22
1 23
1 24
1 25
1 26
1 27
1 28
1 29
1 30
1 31
1 32
1 33
1 34
1 35
1 36
1 37
1 38
1 39
1 40
1 41
1 42
1 43
1 44
1 45
1 46
1 47
1 48
1 49
1 50
1 51
1 52
1 53
1 54
1 55
1 56
1 57
1 58
1 59
1 60
1 61
1 62
1 63
1 64
1 65
1 66
1 67
1 68
1 69
1 70
1 71
1 72
1 73
1 74
1 75
1 76
1 77
1 78
1 79
1 80
1 81
1 82
1 83
1 84
1 85
1 86
1 87
1 88
1 89
1 90
1 91
1 92
1 93
1 94
1 95
1 96
1 97
1 98
1 99
CELL_TYPES 100
1
1
1
1
1
1
1
1
1
1
1
1
1
1
1
1
1
1
1
1
1
1
1
1
1
1
1
1
1
1
1
1
1
1
1
1
1
1
1
1
1
1
1
1
1
1
1
1
1
1
1
1
1
1
1
1
1
1
1
1
1
1
1
1
1
1
1
1
1
1
1
1
1
1
1
1
1
1
1
1
1
1
1
1
1
1
1
1
1
1
1
1
1
1
1
1
1
1
1
1
POINT_DATA 100
SCALARS pressure double 1
LOOKUP_TABLE default
0.00000000e+00
0.00000000e+00
0.00000000e+00
0.00000000e+00
0.00000000e+00
0.00000000e+00
0.00000000e+00
0.00000000e+00
0.00000000e+00
0.00000000e+00
0.00000000e+00
0.00000000e+00
0.00000000e+00
0.00000000e+00
0.00000000e+00
0.00000000e+00
0.00000000e+00
0.00000000e+00
0.00000000e+00
0.00000000e+00
0.00000000e+00
0.00000000e+00
0.00000000e+00
0.00000000e+00
0.00000000e+00
0.00000000e+00
0.00000000e+00
0.00000000e+00
0.00000000e+00
0.00000000e+00
0.00000000e+00
0.00000000e+00
0.00000000e+00
0.00000000e+00
0.00000000e+00
0.00000000e+00
0.00000000e+00
0.00000000e+00
0.00000000e+00
0.00000000e+00
0.00000000e+00
0.00000000e+00
0.00000000e+00
0.00000000e+00
1.86088709e-01
1.88150444e-01
0.00000000e+00
0.00000000e+00
0.00000000e+00
0.00000000e+00
0.00000000e+00
0.00000000e+00
0.00000000e+00
0.00000000e+00
1.88150444e-01
1.86088709e-01
0.00000000e+00
0.00000000e+00
0.00000000e+00
0.00000000e+00
0.00000000e+00
0.00000000e+00
0.00000000e+00
0.00000000e+00
0.00000000e+00
0.00000000e+00
0.00000000e+00
0.00000000e+00
0.00000000e+00
0.00000000e+00
0.00000000e+00
0.00000000e+00
0.00000000e+00
0.00000000e+00
0.00000000e+00
0.00000000e+00
0.00000000e+00
0.00000000e+00
0.00000000e+00
0.00000000e+00
0.00000000e+00
0.00000000e+00
0.00000000e+00
0.00000000e+00
0.00000000e+00
0.00000000e+00
0.00000000e+00
0.00000000e+00
0.00000000e+00
0.00000000e+00
0.00000000e+00
0.00000000e+00
0.00000000e+00
0.00000000e+00
0.00000000e+00
0.00000000e+00
0.00000000e+00
0.00000000e+00
0.00000000e+00
0.00000000e+00
SCALARS type int 1
LOOKUP_TABLE default
0
0
0
0
0
0
0
0
0
0
0
0
0
0
0
0
0
0
0
0
0
0
0
0
0
0
0
0
0
0
0
0
0
0
0
0
0
0
0
0
0
0
0
0
0
0
0
0
0
0
0
0
0
0
0
0
0
0
0
0
0
0
0
0
0
0
0
0
0
0
0
0
0
0
0
0
0
0
0
0
0
0
0
0
0
0
0
0
0
0
0
0
0
0
0
0
0
0
0
0
VECTORS velocity double
-6.32866138e-01 -6.32866138e-01 0.0
-3.97092379e-01 -8.71610514e-01 0.0
-2.13855461e-01 -9.54296925e-01 0.0
-2.32708450e-01 -7.01034189e-01 0.0
-8.82384445e-02 -8.55517473e-01 0.0
8.82384445e-02 -8.55517473e-01 0.0
2.32708450e-01 -7.01034189e-01 0.0
2.13855461e-01 -9.54296925e-01 0.0
3.97092379e-01 -8.71610514e-01 0.0
6.32866138e-01 -6.32866138e-01 0.0
-8.71610514e-01 -3.97092379e-01 0.0
-3.58392546e-01 -3.58392546e-01 0.0
-4.43334731e-01 -5.91336907e-01 0.0
-2.55705139e-01 -2.12286864e-01 0.0
-3.69924560e-01 -8.33020714e-01 0.0
3.69924560e-01 -8.33020714e-01 0.0
2.55705139e-01 -2.12286864e-01 0.0
4.43334731e-01 -5.91336907e-01 0.0
3.58392546e-01 -3.58392546e-01 0.0
8.71610514e-01 -3.97092379e-01 0.0
-9.54296925e-01 -2.13855461e-01 0.0
-5.91336907e-01 -4.43334731e-01 0.0
-4.67845897e-01 -4.67845897e-01 0.0
-2.25186214e-01 -2.96717943e-01 0.0
-3.34145357e-01 -3.98887036e-01 0.0
3.34145358e-01 -3.98887036e-01 0.0
2.25186213e-01 -2.96717944e-01 0.0
4.67845897e-01 -4.67845897e-01 0.0
5.91336907e-01 -4.43334731e-01 0.0
9.54296925e-01 -2.13855461e-01 0.0
-7.01034189e-01 -2.32708450e-01 0.0
-2.12286864e-01 -2.55705139e-01 0.0
-2.96717943e-01 -2.25186214e-01 0.0
-1.61731215e-01 -1.61731215e-01 0.0
-1.44207980e-01 1.08140134e-02 0.0
1.44208003e-01 1.08139657e-02 0.0
1.61731220e-01 -1.61731220e-01 0.0
2.96717944e-01 -2.25186213e-01 0.0
2.12286864e-01 -2.55705139e-01 0.0
7.01034189e-01 -2.32708450e-01 0.0
-8.55517473e-01 -8.82384445e-02 0.0
-8.33020714e-01 -3.69924560e-01 0.0
-3.98887036e-01 -3.34145357e-01 0.0
1.08140134e-02 -1.44207980e-01 0.0
8.84617702e-03 8.84617702e-03 0.0
-8.84699354e-03 8.84699354e-03 0.0
-1.08139657e-02 -1.44208003e-01 0.0
3.98887036e-01 -3.34145358e-01 0.0
8.33020714e-01 -3.69924560e-01 0.0
8.55517473e-01 -8.82384445e-02 0.0
-8.55517473e-01 8.82384445e-02 0.0
-8.33020714e-01 3.69924560e-01 0.0
-3.98887036e-01 3.34145358e-01 0.0
1.08139657e-02 1.44208003e-01 0.0
8.84699354e-03 -8.84699354e-03 0.0
-8.84617702e-03 -8.84617702e-03 0.0
-1.08140134e-02 1.44207980e-01 0.0
3.98887036e-01 3.34145357e-01 0.0
8.33020714e-01 3.69924560e-01 0.0
8.55517473e-01 8.82384445e-02 0.0
-7.01034189e-01 2.32708450e-01 0.0
-2.12286864e-01 2.55705139e-01 0.0
-2.96717944e-01 2.25186213e-01 0.0
-1.61731220e-01 1.61731220e-01 0.0
-1.44208003e-01 -1.08139657e-02 0.0
1.44207980e-01 -1.08140134e-02 0.0
1.61731215e-01 1.61731215e-01 0.0
2.96717943e-01 2.25186214e-01 0.0
2.12286864e-01 2.55705139e-01 0.0
7.01034189e-01 2.32708450e-01 0.0
-9.54296925e-01 2.13855461e-01 0.0
-5.91336907e-01 4.43334731e-01 0.0
-4.67845897e-01 4.67845897e-01 0.0
-2.25186213e-01 2.96717944e-01 0.0
-3.34145358e-01 3.98887036e-01 0.0
3.34145357e-01 3.98887036e-01 0.0
2.25186214e-01 2.96717943e-01 0.0
4.67845897e-01 4.67845897e-01 0.0
5.91336907e-01 4.43334731e-01 0.0
9.54296925e-01 2.13855461e-01 0.0
-8.71610514e-01 3.97092379e-01 0.0
-3.58392546e-01 3.58392546e-01 0.0
-4.43334731e-01 5.91336907e-01 0.0
-2.55705139e-01 2.12286864e-01 0.0
-3.69924560e-01 8.33020714e-01 0.0
3.69924560e-01 8.33020714e-01 0.0
2.55705139e-01 2.12286864e-01 0.0
4.43334731e-01 5.91336907e-01 0.0
3.58392546e-01 3.58392546e-01 0.0
8.71610514e-01 3.97092379e-01 0.0
-6.32866138e-01 6.32866138e-01 0.0
-3.97092379e-01 8.71610514e-01 0.0
-2.13855461e-01 9.54296925e-01 0.0
-2.32708450e-01 7.01034189e-01 0.0
-8.82384445e-02 8.55517473e-01 0.0
8.82384445e-02 8.55517473e-01 0.0
2.32708450e-01 7.01034189e-01 0.0
2.13855461e-01 9.54296925e-01 0.0
3.97092379e-01 8.71610514e-01 0.0
6.32866138e-01 6.32866138e-01 0.0
