# vtk DataFile Version 3.0
MPS Simulation Step 3150
ASCII
DATASET UNSTRUCTURED_GRID
POINTS 4 double
-2.18869377e-02 -2.18869377e-02 0.0
1.35298960e-02 -1.35298960e-02 0.0
-1.35298960e-02 1.35298960e-02 0.0
2.18869377e-02 2.18869377e-02 0.0
CELLS 4 8
1 0
1 1
1 2
1 3
CELL_TYPES 4
1
1
1
1
POINT_DATA 4
SCALARS pressure double 1
LOOKUP_TABLE default
0.00000000e+00
0.00000000e+00
0.00000000e+00
0.00000000e+00
SCALARS type int 1
LOOKUP_TABLE default
0
0
0
0
VECTORS velocity double
-7.30889245e-02 -7.30889245e-02 0.0
4.44438534e-02 -4.44438534e-02 0.0
-4.44438534e-02 4.44438534e-02 0.0
7.30889245e-02 7.30889245e-02 0.0
