# vtk DataFile Version 3.0
MPS Simulation Step 400
ASCII
DATASET UNSTRUCTURED_GRID
POINTS 100 double
-3.35308101e-02 -3.35308101e-02 0.0
-2.17212345e-02 -4.20994826e-02 0.0
-1.25557675e-02 -4.47759455e-02 0.0
-1.08953501e-02 -3.60212129e-02 0.0
-3.90668088e-03 -4.03782238e-02 0.0
3.90668088e-03 -4.03782238e-02 0.0
1.08953501e-02 -3.60212129e-02 0.0
1.25557675e-02 -4.47759455e-02 0.0
2.17212345e-02 -4.20994826e-02 0.0
3.35308101e-02 -3.35308101e-02 0.0
-4.20994826e-02 -2.17212345e-02 0.0
-2.00563876e-02 -2.00563876e-02 0.0
-1.82181742e-02 -2.75834693e-02 0.0
-1.15902307e-02 -1.55011469e-02 0.0
-1.24632186e-02 -3.48102372e-02 0.0
1.24632186e-02 -3.48102372e-02 0.0
1.15902308e-02 -1.55011471e-02 0.0
1.82181742e-02 -2.75834693e-02 0.0
2.00563876e-02 -2.00563876e-02 0.0
4.20994826e-02 -2.17212345e-02 0.0
-4.47759455e-02 -1.25557675e-02 0.0
-2.75834693e-02 -1.82181742e-02 0.0
-1.92540248e-02 -1.92540248e-02 0.0
-9.22765914e-03 -1.47704504e-02 0.0
-9.13980964e-03 -1.70416747e-02 0.0
9.13980981e-03 -1.70416748e-02 0.0
9.22765924e-03 -1.47704510e-02 0.0
1.92540248e-02 -1.92540248e-02 0.0
2.75834693e-02 -1.82181742e-02 0.0
4.47759455e-02 -1.25557675e-02 0.0
-3.60212129e-02 -1.08953501e-02 0.0
-1.55011469e-02 -1.15902307e-02 0.0
-1.47704504e-02 -9.22765914e-03 0.0
-9.20672776e-03 -9.20672776e-03 0.0
-1.20250847e-03 -1.00391800e-02 0.0
1.21104713e-03 -1.00912096e-02 0.0
9.20867819e-03 -9.20867819e-03 0.0
1.47704510e-02 -9.22765924e-03 0.0
1.55011471e-02 -1.15902308e-02 0.0
3.60212129e-02 -1.08953501e-02 0.0
-4.03782238e-02 -3.90668088e-03 0.0
-3.48102372e-02 -1.24632186e-02 0.0
-1.70416747e-02 -9.13980964e-03 0.0
-1.00391800e-02 -1.20250847e-03 0.0
-1.78569532e-03 -1.78569532e-03 0.0
1.30620034e-03 -1.30620034e-03 0.0
1.00912096e-02 -1.21104713e-03 0.0
1.70416748e-02 -9.13980981e-03 0.0
3.48102372e-02 -1.24632186e-02 0.0
4.03782238e-02 -3.90668088e-03 0.0
-4.03782238e-02 3.90668088e-03 0.0
-3.48102372e-02 1.24632186e-02 0.0
-1.70416748e-02 9.13980981e-03 0.0
-1.00912096e-02 1.21104713e-03 0.0
-1.30620034e-03 1.30620034e-03 0.0
1.78569532e-03 1.78569532e-03 0.0
1.00391800e-02 1.20250847e-03 0.0
1.70416747e-02 9.13980964e-03 0.0
3.48102372e-02 1.24632186e-02 0.0
4.03782238e-02 3.90668088e-03 0.0
-3.60212129e-02 1.08953501e-02 0.0
-1.55011471e-02 1.15902308e-02 0.0
-1.47704510e-02 9.22765924e-03 0.0
-9.20867819e-03 9.20867819e-03 0.0
-1.21104713e-03 1.00912096e-02 0.0
1.20250847e-03 1.00391800e-02 0.0
9.20672776e-03 9.20672776e-03 0.0
1.47704504e-02 9.22765914e-03 0.0
1.55011469e-02 1.15902307e-02 0.0
3.60212129e-02 1.08953501e-02 0.0
-4.47759455e-02 1.25557675e-02 0.0
-2.75834693e-02 1.82181742e-02 0.0
-1.92540248e-02 1.92540248e-02 0.0
-9.22765924e-03 1.47704510e-02 0.0
-9.13980981e-03 1.70416748e-02 0.0
9.13980964e-03 1.70416747e-02 0.0
9.22765914e-03 1.47704504e-02 0.0
1.92540248e-02 1.92540248e-02 0.0
2.75834693e-02 1.82181742e-02 0.0
4.47759455e-02 1.25557675e-02 0.0
-4.20994826e-02 2.17212345e-02 0.0
-2.00563876e-02 2.00563876e-02 0.0
-1.82181742e-02 2.75834693e-02 0.0
-1.15902308e-02 1.55011471e-02 0.0
-1.24632186e-02 3.48102372e-02 0.0
1.24632186e-02 3.48102372e-02 0.0
1.15902307e-02 1.55011469e-02 0.0
1.82181742e-02 2.75834693e-02 0.0
2.00563876e-02 2.00563876e-02 0.0
4.20994826e-02 2.17212345e-02 0.0
-3.35308101e-02 3.35308101e-02 0.0
-2.17212345e-02 4.20994826e-02 0.0
-1.25557675e-02 4.47759455e-02 0.0
-1.08953501e-02 3.60212129e-02 0.0
-3.90668088e-03 4.03782238e-02 0.0
3.90668088e-03 4.03782238e-02 0.0
1.08953501e-02 3.60212129e-02 0.0
1.25557675e-02 4.47759455e-02 0.0
2.17212345e-02 4.20994826e-02 0.0
3.35308101e-02 3.35308101e-02 0.0
CELLS 100 200
1 0
1 1
1 2
1 3
1 4
1 5
1 6
1 7
1 8
1 9
1 10
1 11
1 12
1 13
1 14
1 15
1 16
1 17
1 18
1 19
1 20
1 21
1 22
1 23
1 24
1 25
1 26
1 27
1 28
1 29
1 30
1 31
1 32
1 33
1 34
1 35
1 36
1 37
1 38
1 39
1 40
1 41
1 42
1 43
1 44
1 45
1 46
1 47
1 48
1 49
1 50
1 51
1 52
1 53
1 54
1 55
1 56
1 57
1 58
1 59
1 60
1 61
1 62
1 63
1 64
1 65
1 66
1 67
1 68
1 69
1 70
1 71
1 72
1 73
1 74
1 75
1 76
1 77
1 78
1 79
1 80
1 81
1 82
1 83
1 84
1 85
1 86
1 87
1 88
1 89
1 90
1 91
1 92
1 93
1 94
1 95
1 96
1 97
1 98
1 99
CELL_TYPES 100
1
1
1
1
1
1
1
1
1
1
1
1
1
1
1
1
1
1
1
1
1
1
1
1
1
1
1
1
1
1
1
1
1
1
1
1
1
1
1
1
1
1
1
1
1
1
1
1
1
1
1
1
1
1
1
1
1
1
1
1
1
1
1
1
1
1
1
1
1
1
1
1
1
1
1
1
1
1
1
1
1
1
1
1
1
1
1
1
1
1
1
1
1
1
1
1
1
1
1
1
POINT_DATA 100
SCALARS pressure double 1
LOOKUP_TABLE default
0.00000000e+00
0.00000000e+00
0.00000000e+00
0.00000000e+00
0.00000000e+00
0.00000000e+00
0.00000000e+00
0.00000000e+00
0.00000000e+00
0.00000000e+00
0.00000000e+00
0.00000000e+00
0.00000000e+00
0.00000000e+00
0.00000000e+00
0.00000000e+00
0.00000000e+00
0.00000000e+00
0.00000000e+00
0.00000000e+00
0.00000000e+00
0.00000000e+00
0.00000000e+00
0.00000000e+00
0.00000000e+00
0.00000000e+00
0.00000000e+00
0.00000000e+00
0.00000000e+00
0.00000000e+00
0.00000000e+00
0.00000000e+00
0.00000000e+00
0.00000000e+00
0.00000000e+00
0.00000000e+00
0.00000000e+00
0.00000000e+00
0.00000000e+00
0.00000000e+00
0.00000000e+00
0.00000000e+00
0.00000000e+00
0.00000000e+00
0.00000000e+00
0.00000000e+00
0.00000000e+00
0.00000000e+00
0.00000000e+00
0.00000000e+00
0.00000000e+00
0.00000000e+00
0.00000000e+00
0.00000000e+00
0.00000000e+00
0.00000000e+00
0.00000000e+00
0.00000000e+00
0.00000000e+00
0.00000000e+00
0.00000000e+00
0.00000000e+00
0.00000000e+00
0.00000000e+00
0.00000000e+00
0.00000000e+00
0.00000000e+00
0.00000000e+00
0.00000000e+00
0.00000000e+00
0.00000000e+00
0.00000000e+00
0.00000000e+00
0.00000000e+00
0.00000000e+00
0.00000000e+00
0.00000000e+00
0.00000000e+00
0.00000000e+00
0.00000000e+00
0.00000000e+00
0.00000000e+00
0.00000000e+00
0.00000000e+00
0.00000000e+00
0.00000000e+00
0.00000000e+00
0.00000000e+00
0.00000000e+00
0.00000000e+00
0.00000000e+00
0.00000000e+00
0.00000000e+00
0.00000000e+00
0.00000000e+00
0.00000000e+00
0.00000000e+00
0.00000000e+00
0.00000000e+00
0.00000000e+00
SCALARS type int 1
LOOKUP_TABLE default
0
0
0
0
0
0
0
0
0
0
0
0
0
0
0
0
0
0
0
0
0
0
0
0
0
0
0
0
0
0
0
0
0
0
0
0
0
0
0
0
0
0
0
0
0
0
0
0
0
0
0
0
0
0
0
0
0
0
0
0
0
0
0
0
0
0
0
0
0
0
0
0
0
0
0
0
0
0
0
0
0
0
0
0
0
0
0
0
0
0
0
0
0
0
0
0
0
0
0
0
VECTORS velocity double
-6.32866138e-01 -6.32866138e-01 0.0
-3.97072407e-01 -8.71619524e-01 0.0
-2.13875645e-01 -9.54240674e-01 0.0
-2.30128377e-01 -7.76601251e-01 0.0
-8.82607867e-02 -8.55483546e-01 0.0
8.82607867e-02 -8.55483546e-01 0.0
2.30128377e-01 -7.76601251e-01 0.0
2.13875645e-01 -9.54240674e-01 0.0
3.97072407e-01 -8.71619524e-01 0.0
6.32866138e-01 -6.32866138e-01 0.0
-8.71619524e-01 -3.97072407e-01 0.0
-4.23973787e-01 -4.23973787e-01 0.0
-4.43288860e-01 -5.91270112e-01 0.0
-3.36726970e-01 -2.51566506e-01 0.0
-3.72442165e-01 -7.57499792e-01 0.0
3.72442165e-01 -7.57499792e-01 0.0
3.36726976e-01 -2.51566527e-01 0.0
4.43288860e-01 -5.91270112e-01 0.0
4.23973787e-01 -4.23973787e-01 0.0
8.71619524e-01 -3.97072407e-01 0.0
-9.54240674e-01 -2.13875645e-01 0.0
-5.91270112e-01 -4.43288860e-01 0.0
-4.02272918e-01 -4.02272918e-01 0.0
-2.25671410e-01 -2.96756458e-01 0.0
-2.52634036e-01 -3.59534895e-01 0.0
2.52634051e-01 -3.59534897e-01 0.0
2.25671437e-01 -2.96756517e-01 0.0
4.02272918e-01 -4.02272918e-01 0.0
5.91270112e-01 -4.43288860e-01 0.0
9.54240674e-01 -2.13875645e-01 0.0
-7.76601251e-01 -2.30128377e-01 0.0
-2.51566506e-01 -3.36726970e-01 0.0
-2.96756458e-01 -2.25671410e-01 0.0
-2.45079232e-01 -2.45079232e-01 0.0
-6.76634807e-02 -3.95969947e-01 0.0
6.81768915e-02 -4.00649988e-01 0.0
2.45196555e-01 -2.45196555e-01 0.0
2.96756517e-01 -2.25671437e-01 0.0
2.51566527e-01 -3.36726976e-01 0.0
7.76601251e-01 -2.30128377e-01 0.0
-8.55483546e-01 -8.82607867e-02 0.0
-7.57499792e-01 -3.72442165e-01 0.0
-3.59534895e-01 -2.52634036e-01 0.0
-3.95969947e-01 -6.76634807e-02 0.0
-7.32626332e-02 -7.32626332e-02 0.0
4.45968309e-02 -4.45968309e-02 0.0
4.00649988e-01 -6.81768915e-02 0.0
3.59534897e-01 -2.52634051e-01 0.0
7.57499792e-01 -3.72442165e-01 0.0
8.55483546e-01 -8.82607867e-02 0.0
-8.55483546e-01 8.82607867e-02 0.0
-7.57499792e-01 3.72442165e-01 0.0
-3.59534897e-01 2.52634051e-01 0.0
-4.00649988e-01 6.81768915e-02 0.0
-4.45968309e-02 4.45968309e-02 0.0
7.32626332e-02 7.32626332e-02 0.0
3.95969947e-01 6.76634807e-02 0.0
3.59534895e-01 2.52634036e-01 0.0
7.57499792e-01 3.72442165e-01 0.0
8.55483546e-01 8.82607867e-02 0.0
-7.76601251e-01 2.30128377e-01 0.0
-2.51566527e-01 3.36726976e-01 0.0
-2.96756517e-01 2.25671437e-01 0.0
-2.45196555e-01 2.45196555e-01 0.0
-6.81768915e-02 4.00649988e-01 0.0
6.76634807e-02 3.95969947e-01 0.0
2.45079232e-01 2.45079232e-01 0.0
2.96756458e-01 2.25671410e-01 0.0
2.51566506e-01 3.36726970e-01 0.0
7.76601251e-01 2.30128377e-01 0.0
-9.54240674e-01 2.13875645e-01 0.0
-5.91270112e-01 4.43288860e-01 0.0
-4.02272918e-01 4.02272918e-01 0.0
-2.25671437e-01 2.96756517e-01 0.0
-2.52634051e-01 3.59534897e-01 0.0
2.52634036e-01 3.59534895e-01 0.0
2.25671410e-01 2.96756458e-01 0.0
4.02272918e-01 4.02272918e-01 0.0
5.91270112e-01 4.43288860e-01 0.0
9.54240674e-01 2.13875645e-01 0.0
-8.71619524e-01 3.97072407e-01 0.0
-4.23973787e-01 4.23973787e-01 0.0
-4.43288860e-01 5.91270112e-01 0.0
-3.36726976e-01 2.51566527e-01 0.0
-3.72442165e-01 7.57499792e-01 0.0
3.72442165e-01 7.57499792e-01 0.0
3.36726970e-01 2.51566506e-01 0.0
4.43288860e-01 5.91270112e-01 0.0
4.23973787e-01 4.23973787e-01 0.0
8.71619524e-01 3.97072407e-01 0.0
-6.32866138e-01 6.32866138e-01 0.0
-3.97072407e-01 8.71619524e-01 0.0
-2.13875645e-01 9.54240674e-01 0.0
-2.30128377e-01 7.76601251e-01 0.0
-8.82607867e-02 8.55483546e-01 0.0
8.82607867e-02 8.55483546e-01 0.0
2.30128377e-01 7.76601251e-01 0.0
2.13875645e-01 9.54240674e-01 0.0
3.97072407e-01 8.71619524e-01 0.0
6.32866138e-01 6.32866138e-01 0.0
