# vtk DataFile Version 3.0
MPS Simulation Step 1250
ASCII
DATASET UNSTRUCTURED_GRID
POINTS 48 double
-5.60818961e-02 -5.60818961e-02 0.0
-3.77960145e-02 -3.92923319e-02 0.0
3.77960132e-02 -3.92923322e-02 0.0
5.60818961e-02 -5.60818961e-02 0.0
-5.34595062e-02 -5.34595062e-02 0.0
-2.84293656e-02 -4.00005275e-02 0.0
-3.06151929e-02 -4.75813940e-02 0.0
3.06151943e-02 -4.75813941e-02 0.0
2.84293734e-02 -4.00005318e-02 0.0
5.34595062e-02 -5.34595062e-02 0.0
-3.92923319e-02 -3.77960145e-02 0.0
-4.00005275e-02 -2.84293656e-02 0.0
-3.00402809e-02 -3.00402809e-02 0.0
-6.94004790e-03 -4.36971029e-02 0.0
6.99222648e-03 -4.41459811e-02 0.0
3.00522037e-02 -3.00522037e-02 0.0
4.00005318e-02 -2.84293734e-02 0.0
3.92923322e-02 -3.77960132e-02 0.0
-4.75813940e-02 -3.06151929e-02 0.0
-4.36971029e-02 -6.94004790e-03 0.0
-8.00004206e-03 -8.00004206e-03 0.0
5.08556388e-03 -5.08556388e-03 0.0
4.41459811e-02 -6.99222648e-03 0.0
4.75813941e-02 -3.06151943e-02 0.0
-4.75813941e-02 3.06151943e-02 0.0
-4.41459811e-02 6.99222648e-03 0.0
-5.08556388e-03 5.08556388e-03 0.0
8.00004206e-03 8.00004206e-03 0.0
4.36971029e-02 6.94004790e-03 0.0
4.75813940e-02 3.06151929e-02 0.0
-3.92923322e-02 3.77960132e-02 0.0
-4.00005318e-02 2.84293734e-02 0.0
-3.00522037e-02 3.00522037e-02 0.0
-6.99222648e-03 4.41459811e-02 0.0
6.94004790e-03 4.36971029e-02 0.0
3.00402809e-02 3.00402809e-02 0.0
4.00005275e-02 2.84293656e-02 0.0
3.92923319e-02 3.77960145e-02 0.0
-5.34595062e-02 5.34595062e-02 0.0
-2.84293734e-02 4.00005318e-02 0.0
-3.06151943e-02 4.75813941e-02 0.0
3.06151929e-02 4.75813940e-02 0.0
2.84293656e-02 4.00005275e-02 0.0
5.34595062e-02 5.34595062e-02 0.0
-5.60818961e-02 5.60818961e-02 0.0
-3.77960132e-02 3.92923322e-02 0.0
3.77960145e-02 3.92923319e-02 0.0
5.60818961e-02 5.60818961e-02 0.0
CELLS 48 96
1 0
1 1
1 2
1 3
1 4
1 5
1 6
1 7
1 8
1 9
1 10
1 11
1 12
1 13
1 14
1 15
1 16
1 17
1 18
1 19
1 20
1 21
1 22
1 23
1 24
1 25
1 26
1 27
1 28
1 29
1 30
1 31
1 32
1 33
1 34
1 35
1 36
1 37
1 38
1 39
1 40
1 41
1 42
1 43
1 44
1 45
1 46
1 47
CELL_TYPES 48
1
1
1
1
1
1
1
1
1
1
1
1
1
1
1
1
1
1
1
1
1
1
1
1
1
1
1
1
1
1
1
1
1
1
1
1
1
1
1
1
1
1
1
1
1
1
1
1
POINT_DATA 48
SCALARS pressure double 1
LOOKUP_TABLE default
0.00000000e+00
0.00000000e+00
0.00000000e+00
0.00000000e+00
0.00000000e+00
0.00000000e+00
0.00000000e+00
0.00000000e+00
0.00000000e+00
0.00000000e+00
0.00000000e+00
0.00000000e+00
0.00000000e+00
0.00000000e+00
0.00000000e+00
0.00000000e+00
0.00000000e+00
0.00000000e+00
0.00000000e+00
0.00000000e+00
0.00000000e+00
0.00000000e+00
0.00000000e+00
0.00000000e+00
0.00000000e+00
0.00000000e+00
0.00000000e+00
0.00000000e+00
0.00000000e+00
0.00000000e+00
0.00000000e+00
0.00000000e+00
0.00000000e+00
0.00000000e+00
0.00000000e+00
0.00000000e+00
0.00000000e+00
0.00000000e+00
0.00000000e+00
0.00000000e+00
0.00000000e+00
0.00000000e+00
0.00000000e+00
0.00000000e+00
0.00000000e+00
0.00000000e+00
0.00000000e+00
0.00000000e+00
SCALARS type int 1
LOOKUP_TABLE default
0
0
0
0
0
0
0
0
0
0
0
0
0
0
0
0
0
0
0
0
0
0
0
0
0
0
0
0
0
0
0
0
0
0
0
0
0
0
0
0
0
0
0
0
0
0
0
0
VECTORS velocity double
-4.23746345e-01 -4.23746345e-01 0.0
-2.85838092e-01 -3.02341067e-01 0.0
2.85838087e-01 -3.02341046e-01 0.0
4.23746345e-01 -4.23746345e-01 0.0
-4.02500596e-01 -4.02500596e-01 0.0
-2.25957743e-01 -2.96863998e-01 0.0
-2.52640337e-01 -3.59224216e-01 0.0
2.52640352e-01 -3.59224216e-01 0.0
2.25957850e-01 -2.96864026e-01 0.0
4.02500596e-01 -4.02500596e-01 0.0
-3.02341067e-01 -2.85838092e-01 0.0
-2.96863998e-01 -2.25957743e-01 0.0
-2.45104052e-01 -2.45104052e-01 0.0
-6.74764540e-02 -3.95976390e-01 0.0
6.79898647e-02 -4.00643544e-01 0.0
2.45221383e-01 -2.45221383e-01 0.0
2.96864026e-01 -2.25957850e-01 0.0
3.02341046e-01 -2.85838087e-01 0.0
-3.59224216e-01 -2.52640337e-01 0.0
-3.95976390e-01 -6.74764540e-02 0.0
-7.30889245e-02 -7.30889245e-02 0.0
4.44438534e-02 -4.44438534e-02 0.0
4.00643544e-01 -6.79898647e-02 0.0
3.59224216e-01 -2.52640352e-01 0.0
-3.59224216e-01 2.52640352e-01 0.0
-4.00643544e-01 6.79898647e-02 0.0
-4.44438534e-02 4.44438534e-02 0.0
7.30889245e-02 7.30889245e-02 0.0
3.95976390e-01 6.74764540e-02 0.0
3.59224216e-01 2.52640337e-01 0.0
-3.02341046e-01 2.85838087e-01 0.0
-2.96864026e-01 2.25957850e-01 0.0
-2.45221383e-01 2.45221383e-01 0.0
-6.79898647e-02 4.00643544e-01 0.0
6.74764540e-02 3.95976390e-01 0.0
2.45104052e-01 2.45104052e-01 0.0
2.96863998e-01 2.25957743e-01 0.0
3.02341067e-01 2.85838092e-01 0.0
-4.02500596e-01 4.02500596e-01 0.0
-2.25957850e-01 2.96864026e-01 0.0
-2.52640352e-01 3.59224216e-01 0.0
2.52640337e-01 3.59224216e-01 0.0
2.25957743e-01 2.96863998e-01 0.0
4.02500596e-01 4.02500596e-01 0.0
-4.23746345e-01 4.23746345e-01 0.0
-2.85838087e-01 3.02341046e-01 0.0
2.85838092e-01 3.02341067e-01 0.0
4.23746345e-01 4.23746345e-01 0.0
