# vtk DataFile Version 3.0
MPS Simulation Step 1150
ASCII
DATASET UNSTRUCTURED_GRID
POINTS 48 double
-5.18443729e-02 -5.18443729e-02 0.0
-3.49377452e-02 -3.62688096e-02 0.0
3.49377439e-02 -3.62688101e-02 0.0
5.18443729e-02 -5.18443729e-02 0.0
-4.94345600e-02 -4.94345600e-02 0.0
-2.61697909e-02 -3.70318939e-02 0.0
-2.80887868e-02 -4.39891455e-02 0.0
2.80887880e-02 -4.39891455e-02 0.0
2.61697976e-02 -3.70318979e-02 0.0
4.94345600e-02 -4.94345600e-02 0.0
-3.62688096e-02 -3.49377452e-02 0.0
-3.70318939e-02 -2.61697909e-02 0.0
-2.75892404e-02 -2.75892404e-02 0.0
-6.26528336e-03 -3.97373390e-02 0.0
6.31232783e-03 -4.01395457e-02 0.0
2.75999899e-02 -2.75999899e-02 0.0
3.70318979e-02 -2.61697976e-02 0.0
3.62688101e-02 -3.49377439e-02 0.0
-4.39891455e-02 -2.80887868e-02 0.0
-3.97373390e-02 -6.26528336e-03 0.0
-7.26915281e-03 -7.26915281e-03 0.0
4.64112534e-03 -4.64112534e-03 0.0
4.01395457e-02 -6.31232783e-03 0.0
4.39891455e-02 -2.80887880e-02 0.0
-4.39891455e-02 2.80887880e-02 0.0
-4.01395457e-02 6.31232783e-03 0.0
-4.64112534e-03 4.64112534e-03 0.0
7.26915281e-03 7.26915281e-03 0.0
3.97373390e-02 6.26528336e-03 0.0
4.39891455e-02 2.80887868e-02 0.0
-3.62688101e-02 3.49377439e-02 0.0
-3.70318979e-02 2.61697976e-02 0.0
-2.75999899e-02 2.75999899e-02 0.0
-6.31232783e-03 4.01395457e-02 0.0
6.26528336e-03 3.97373390e-02 0.0
2.75892404e-02 2.75892404e-02 0.0
3.70318939e-02 2.61697909e-02 0.0
3.62688096e-02 3.49377452e-02 0.0
-4.94345600e-02 4.94345600e-02 0.0
-2.61697976e-02 3.70318979e-02 0.0
-2.80887880e-02 4.39891455e-02 0.0
2.80887868e-02 4.39891455e-02 0.0
2.61697909e-02 3.70318939e-02 0.0
4.94345600e-02 4.94345600e-02 0.0
-5.18443729e-02 5.18443729e-02 0.0
-3.49377439e-02 3.62688101e-02 0.0
3.49377452e-02 3.62688096e-02 0.0
5.18443729e-02 5.18443729e-02 0.0
CELLS 48 96
1 0
1 1
1 2
1 3
1 4
1 5
1 6
1 7
1 8
1 9
1 10
1 11
1 12
1 13
1 14
1 15
1 16
1 17
1 18
1 19
1 20
1 21
1 22
1 23
1 24
1 25
1 26
1 27
1 28
1 29
1 30
1 31
1 32
1 33
1 34
1 35
1 36
1 37
1 38
1 39
1 40
1 41
1 42
1 43
1 44
1 45
1 46
1 47
CELL_TYPES 48
1
1
1
1
1
1
1
1
1
1
1
1
1
1
1
1
1
1
1
1
1
1
1
1
1
1
1
1
1
1
1
1
1
1
1
1
1
1
1
1
1
1
1
1
1
1
1
1
POINT_DATA 48
SCALARS pressure double 1
LOOKUP_TABLE default
0.00000000e+00
0.00000000e+00
0.00000000e+00
0.00000000e+00
0.00000000e+00
0.00000000e+00
0.00000000e+00
0.00000000e+00
0.00000000e+00
0.00000000e+00
0.00000000e+00
0.00000000e+00
0.00000000e+00
0.00000000e+00
0.00000000e+00
0.00000000e+00
0.00000000e+00
0.00000000e+00
0.00000000e+00
0.00000000e+00
0.00000000e+00
0.00000000e+00
0.00000000e+00
0.00000000e+00
0.00000000e+00
0.00000000e+00
0.00000000e+00
0.00000000e+00
0.00000000e+00
0.00000000e+00
0.00000000e+00
0.00000000e+00
0.00000000e+00
0.00000000e+00
0.00000000e+00
0.00000000e+00
0.00000000e+00
0.00000000e+00
0.00000000e+00
0.00000000e+00
0.00000000e+00
0.00000000e+00
0.00000000e+00
0.00000000e+00
0.00000000e+00
0.00000000e+00
0.00000000e+00
0.00000000e+00
SCALARS type int 1
LOOKUP_TABLE default
0
0
0
0
0
0
0
0
0
0
0
0
0
0
0
0
0
0
0
0
0
0
0
0
0
0
0
0
0
0
0
0
0
0
0
0
0
0
0
0
0
0
0
0
0
0
0
0
VECTORS velocity double
-4.23758736e-01 -4.23758736e-01 0.0
-2.85814919e-01 -3.02364240e-01 0.0
2.85814914e-01 -3.02364219e-01 0.0
4.23758736e-01 -4.23758736e-01 0.0
-4.02488205e-01 -4.02488205e-01 0.0
-2.25956993e-01 -2.96862245e-01 0.0
-2.52641088e-01 -3.59225969e-01 0.0
2.52641102e-01 -3.59225969e-01 0.0
2.25957100e-01 -2.96862272e-01 0.0
4.02488205e-01 -4.02488205e-01 0.0
-3.02364240e-01 -2.85814919e-01 0.0
-2.96862245e-01 -2.25956993e-01 0.0
-2.45104052e-01 -2.45104052e-01 0.0
-6.74764540e-02 -3.95976390e-01 0.0
6.79898647e-02 -4.00643544e-01 0.0
2.45221383e-01 -2.45221383e-01 0.0
2.96862272e-01 -2.25957100e-01 0.0
3.02364219e-01 -2.85814914e-01 0.0
-3.59225969e-01 -2.52641088e-01 0.0
-3.95976390e-01 -6.74764540e-02 0.0
-7.30889245e-02 -7.30889245e-02 0.0
4.44438534e-02 -4.44438534e-02 0.0
4.00643544e-01 -6.79898647e-02 0.0
3.59225969e-01 -2.52641102e-01 0.0
-3.59225969e-01 2.52641102e-01 0.0
-4.00643544e-01 6.79898647e-02 0.0
-4.44438534e-02 4.44438534e-02 0.0
7.30889245e-02 7.30889245e-02 0.0
3.95976390e-01 6.74764540e-02 0.0
3.59225969e-01 2.52641088e-01 0.0
-3.02364219e-01 2.85814914e-01 0.0
-2.96862272e-01 2.25957100e-01 0.0
-2.45221383e-01 2.45221383e-01 0.0
-6.79898647e-02 4.00643544e-01 0.0
6.74764540e-02 3.95976390e-01 0.0
2.45104052e-01 2.45104052e-01 0.0
2.96862245e-01 2.25956993e-01 0.0
3.02364240e-01 2.85814919e-01 0.0
-4.02488205e-01 4.02488205e-01 0.0
-2.25957100e-01 2.96862272e-01 0.0
-2.52641102e-01 3.59225969e-01 0.0
2.52641088e-01 3.59225969e-01 0.0
2.25956993e-01 2.96862245e-01 0.0
4.02488205e-01 4.02488205e-01 0.0
-4.23758736e-01 4.23758736e-01 0.0
-2.85814914e-01 3.02364219e-01 0.0
2.85814919e-01 3.02364240e-01 0.0
4.23758736e-01 4.23758736e-01 0.0
