# vtk DataFile Version 3.0
MPS Simulation Step 1500
ASCII
DATASET UNSTRUCTURED_GRID
POINTS 48 double
-6.66752364e-02 -6.66752364e-02 0.0
-4.49425632e-02 -4.68502622e-02 0.0
4.49425617e-02 -4.68502619e-02 0.0
6.66752364e-02 -6.66752364e-02 0.0
-6.35223395e-02 -6.35223395e-02 0.0
-3.40783096e-02 -4.74221283e-02 0.0
-3.69312009e-02 -5.65619985e-02 0.0
3.69312027e-02 -5.65619986e-02 0.0
3.40783200e-02 -4.74221333e-02 0.0
6.35223395e-02 -6.35223395e-02 0.0
-4.68502622e-02 -4.49425632e-02 0.0
-4.74221283e-02 -3.40783096e-02 0.0
-3.61678822e-02 -3.61678822e-02 0.0
-8.62695925e-03 -5.35965126e-02 0.0
8.69197309e-03 -5.41620697e-02 0.0
3.61827383e-02 -3.61827383e-02 0.0
4.74221333e-02 -3.40783200e-02 0.0
4.68502619e-02 -4.49425617e-02 0.0
-5.65619985e-02 -3.69312009e-02 0.0
-5.35965126e-02 -8.62695925e-03 0.0
-9.82726517e-03 -9.82726517e-03 0.0
6.19666021e-03 -6.19666021e-03 0.0
5.41620697e-02 -8.69197309e-03 0.0
5.65619986e-02 -3.69312027e-02 0.0
-5.65619986e-02 3.69312027e-02 0.0
-5.41620697e-02 8.69197309e-03 0.0
-6.19666021e-03 6.19666021e-03 0.0
9.82726517e-03 9.82726517e-03 0.0
5.35965126e-02 8.62695925e-03 0.0
5.65619985e-02 3.69312009e-02 0.0
-4.68502619e-02 4.49425617e-02 0.0
-4.74221333e-02 3.40783200e-02 0.0
-3.61827383e-02 3.61827383e-02 0.0
-8.69197309e-03 5.41620697e-02 0.0
8.62695925e-03 5.35965126e-02 0.0
3.61678822e-02 3.61678822e-02 0.0
4.74221283e-02 3.40783096e-02 0.0
4.68502622e-02 4.49425632e-02 0.0
-6.35223395e-02 6.35223395e-02 0.0
-3.40783200e-02 4.74221333e-02 0.0
-3.69312027e-02 5.65619986e-02 0.0
3.69312009e-02 5.65619985e-02 0.0
3.40783096e-02 4.74221283e-02 0.0
6.35223395e-02 6.35223395e-02 0.0
-6.66752364e-02 6.66752364e-02 0.0
-4.49425617e-02 4.68502619e-02 0.0
4.49425632e-02 4.68502622e-02 0.0
6.66752364e-02 6.66752364e-02 0.0
CELLS 48 96
1 0
1 1
1 2
1 3
1 4
1 5
1 6
1 7
1 8
1 9
1 10
1 11
1 12
1 13
1 14
1 15
1 16
1 17
1 18
1 19
1 20
1 21
1 22
1 23
1 24
1 25
1 26
1 27
1 28
1 29
1 30
1 31
1 32
1 33
1 34
1 35
1 36
1 37
1 38
1 39
1 40
1 41
1 42
1 43
1 44
1 45
1 46
1 47
CELL_TYPES 48
1
1
1
1
1
1
1
1
1
1
1
1
1
1
1
1
1
1
1
1
1
1
1
1
1
1
1
1
1
1
1
1
1
1
1
1
1
1
1
1
1
1
1
1
1
1
1
1
POINT_DATA 48
SCALARS pressure double 1
LOOKUP_TABLE default
0.00000000e+00
0.00000000e+00
0.00000000e+00
0.00000000e+00
0.00000000e+00
0.00000000e+00
0.00000000e+00
0.00000000e+00
0.00000000e+00
0.00000000e+00
0.00000000e+00
0.00000000e+00
0.00000000e+00
0.00000000e+00
0.00000000e+00
0.00000000e+00
0.00000000e+00
0.00000000e+00
0.00000000e+00
0.00000000e+00
0.00000000e+00
0.00000000e+00
0.00000000e+00
0.00000000e+00
0.00000000e+00
0.00000000e+00
0.00000000e+00
0.00000000e+00
0.00000000e+00
0.00000000e+00
0.00000000e+00
0.00000000e+00
0.00000000e+00
0.00000000e+00
0.00000000e+00
0.00000000e+00
0.00000000e+00
0.00000000e+00
0.00000000e+00
0.00000000e+00
0.00000000e+00
0.00000000e+00
0.00000000e+00
0.00000000e+00
0.00000000e+00
0.00000000e+00
0.00000000e+00
0.00000000e+00
SCALARS type int 1
LOOKUP_TABLE default
0
0
0
0
0
0
0
0
0
0
0
0
0
0
0
0
0
0
0
0
0
0
0
0
0
0
0
0
0
0
0
0
0
0
0
0
0
0
0
0
0
0
0
0
0
0
0
0
VECTORS velocity double
-4.23722477e-01 -4.23722477e-01 0.0
-2.85882993e-01 -3.02296167e-01 0.0
2.85882987e-01 -3.02296146e-01 0.0
4.23722477e-01 -4.23722477e-01 0.0
-4.02524465e-01 -4.02524465e-01 0.0
-2.25957758e-01 -2.96864034e-01 0.0
-2.52640322e-01 -3.59224181e-01 0.0
2.52640337e-01 -3.59224181e-01 0.0
2.25957865e-01 -2.96864061e-01 0.0
4.02524465e-01 -4.02524465e-01 0.0
-3.02296167e-01 -2.85882993e-01 0.0
-2.96864034e-01 -2.25957758e-01 0.0
-2.45104052e-01 -2.45104052e-01 0.0
-6.74764540e-02 -3.95976390e-01 0.0
6.79898647e-02 -4.00643544e-01 0.0
2.45221383e-01 -2.45221383e-01 0.0
2.96864061e-01 -2.25957865e-01 0.0
3.02296146e-01 -2.85882987e-01 0.0
-3.59224181e-01 -2.52640322e-01 0.0
-3.95976390e-01 -6.74764540e-02 0.0
-7.30889245e-02 -7.30889245e-02 0.0
4.44438534e-02 -4.44438534e-02 0.0
4.00643544e-01 -6.79898647e-02 0.0
3.59224181e-01 -2.52640337e-01 0.0
-3.59224181e-01 2.52640337e-01 0.0
-4.00643544e-01 6.79898647e-02 0.0
-4.44438534e-02 4.44438534e-02 0.0
7.30889245e-02 7.30889245e-02 0.0
3.95976390e-01 6.74764540e-02 0.0
3.59224181e-01 2.52640322e-01 0.0
-3.02296146e-01 2.85882987e-01 0.0
-2.96864061e-01 2.25957865e-01 0.0
-2.45221383e-01 2.45221383e-01 0.0
-6.79898647e-02 4.00643544e-01 0.0
6.74764540e-02 3.95976390e-01 0.0
2.45104052e-01 2.45104052e-01 0.0
2.96864034e-01 2.25957758e-01 0.0
3.02296167e-01 2.85882993e-01 0.0
-4.02524465e-01 4.02524465e-01 0.0
-2.25957865e-01 2.96864061e-01 0.0
-2.52640337e-01 3.59224181e-01 0.0
2.52640322e-01 3.59224181e-01 0.0
2.25957758e-01 2.96864034e-01 0.0
4.02524465e-01 4.02524465e-01 0.0
-4.23722477e-01 4.23722477e-01 0.0
-2.85882987e-01 3.02296146e-01 0.0
2.85882993e-01 3.02296167e-01 0.0
4.23722477e-01 4.23722477e-01 0.0
