# vtk DataFile Version 3.0
MPS Simulation Step 250
ASCII
DATASET UNSTRUCTURED_GRID
POINTS 100 double
-2.40378181e-02 -2.40378181e-02 0.0
-1.57651339e-02 -2.90251963e-02 0.0
-9.34764948e-03 -3.04622908e-02 0.0
-7.43361103e-03 -2.46885159e-02 0.0
-2.58271837e-03 -2.75459199e-02 0.0
2.58271837e-03 -2.75459199e-02 0.0
7.43361103e-03 -2.46885159e-02 0.0
9.34764948e-03 -3.04622908e-02 0.0
1.57651339e-02 -2.90251963e-02 0.0
2.40378181e-02 -2.40378181e-02 0.0
-2.90251963e-02 -1.57651339e-02 0.0
-1.44028057e-02 -1.44028057e-02 0.0
-1.15687763e-02 -1.87141993e-02 0.0
-6.53622165e-03 -1.17300129e-02 0.0
-6.88630470e-03 -2.31314866e-02 0.0
6.88630470e-03 -2.31314866e-02 0.0
6.53622166e-03 -1.17300129e-02 0.0
1.15687763e-02 -1.87141993e-02 0.0
1.44028057e-02 -1.44028057e-02 0.0
2.90251963e-02 -1.57651339e-02 0.0
-3.04622908e-02 -9.34764948e-03 0.0
-1.87141993e-02 -1.15687763e-02 0.0
-1.25141005e-02 -1.25141005e-02 0.0
-5.84482464e-03 -1.03192915e-02 0.0
-5.35103177e-03 -1.16460666e-02 0.0
5.35103177e-03 -1.16460666e-02 0.0
5.84482464e-03 -1.03192916e-02 0.0
1.25141005e-02 -1.25141005e-02 0.0
1.87141993e-02 -1.15687763e-02 0.0
3.04622908e-02 -9.34764948e-03 0.0
-2.46885159e-02 -7.43361103e-03 0.0
-1.17300129e-02 -6.53622165e-03 0.0
-1.03192915e-02 -5.84482464e-03 0.0
-5.53066561e-03 -5.53066561e-03 0.0
-2.19182849e-03 -4.08868182e-03 0.0
2.19259384e-03 -4.09008263e-03 0.0
5.53085923e-03 -5.53085923e-03 0.0
1.03192916e-02 -5.84482464e-03 0.0
1.17300129e-02 -6.53622166e-03 0.0
2.46885159e-02 -7.43361103e-03 0.0
-2.75459199e-02 -2.58271837e-03 0.0
-2.31314866e-02 -6.88630470e-03 0.0
-1.16460666e-02 -5.35103177e-03 0.0
-4.08868182e-03 -2.19182849e-03 0.0
-6.84554854e-04 -6.84554854e-04 0.0
6.35773981e-04 -6.35773981e-04 0.0
4.09008263e-03 -2.19259384e-03 0.0
1.16460666e-02 -5.35103177e-03 0.0
2.31314866e-02 -6.88630470e-03 0.0
2.75459199e-02 -2.58271837e-03 0.0
-2.75459199e-02 2.58271837e-03 0.0
-2.31314866e-02 6.88630470e-03 0.0
-1.16460666e-02 5.35103177e-03 0.0
-4.09008263e-03 2.19259384e-03 0.0
-6.35773981e-04 6.35773981e-04 0.0
6.84554854e-04 6.84554854e-04 0.0
4.08868182e-03 2.19182849e-03 0.0
1.16460666e-02 5.35103177e-03 0.0
2.31314866e-02 6.88630470e-03 0.0
2.75459199e-02 2.58271837e-03 0.0
-2.46885159e-02 7.43361103e-03 0.0
-1.17300129e-02 6.53622166e-03 0.0
-1.03192916e-02 5.84482464e-03 0.0
-5.53085923e-03 5.53085923e-03 0.0
-2.19259384e-03 4.09008263e-03 0.0
2.19182849e-03 4.08868182e-03 0.0
5.53066561e-03 5.53066561e-03 0.0
1.03192915e-02 5.84482464e-03 0.0
1.17300129e-02 6.53622165e-03 0.0
2.46885159e-02 7.43361103e-03 0.0
-3.04622908e-02 9.34764948e-03 0.0
-1.87141993e-02 1.15687763e-02 0.0
-1.25141005e-02 1.25141005e-02 0.0
-5.84482464e-03 1.03192916e-02 0.0
-5.35103177e-03 1.16460666e-02 0.0
5.35103177e-03 1.16460666e-02 0.0
5.84482464e-03 1.03192915e-02 0.0
1.25141005e-02 1.25141005e-02 0.0
1.87141993e-02 1.15687763e-02 0.0
3.04622908e-02 9.34764948e-03 0.0
-2.90251963e-02 1.57651339e-02 0.0
-1.44028057e-02 1.44028057e-02 0.0
-1.15687763e-02 1.87141993e-02 0.0
-6.53622166e-03 1.17300129e-02 0.0
-6.88630470e-03 2.31314866e-02 0.0
6.88630470e-03 2.31314866e-02 0.0
6.53622165e-03 1.17300129e-02 0.0
1.15687763e-02 1.87141993e-02 0.0
1.44028057e-02 1.44028057e-02 0.0
2.90251963e-02 1.57651339e-02 0.0
-2.40378181e-02 2.40378181e-02 0.0
-1.57651339e-02 2.90251963e-02 0.0
-9.34764948e-03 3.04622908e-02 0.0
-7.43361103e-03 2.46885159e-02 0.0
-2.58271837e-03 2.75459199e-02 0.0
2.58271837e-03 2.75459199e-02 0.0
7.43361103e-03 2.46885159e-02 0.0
9.34764948e-03 3.04622908e-02 0.0
1.57651339e-02 2.90251963e-02 0.0
2.40378181e-02 2.40378181e-02 0.0
CELLS 100 200
1 0
1 1
1 2
1 3
1 4
1 5
1 6
1 7
1 8
1 9
1 10
1 11
1 12
1 13
1 14
1 15
1 16
1 17
1 18
1 19
1 20
1 21
1 22
1 23
1 24
1 25
1 26
1 27
1 28
1 29
1 30
1 31
1 32
1 33
1 34
1 35
1 36
1 37
1 38
1 39
1 40
1 41
1 42
1 43
1 44
1 45
1 46
1 47
1 48
1 49
1 50
1 51
1 52
1 53
1 54
1 55
1 56
1 57
1 58
1 59
1 60
1 61
1 62
1 63
1 64
1 65
1 66
1 67
1 68
1 69
1 70
1 71
1 72
1 73
1 74
1 75
1 76
1 77
1 78
1 79
1 80
1 81
1 82
1 83
1 84
1 85
1 86
1 87
1 88
1 89
1 90
1 91
1 92
1 93
1 94
1 95
1 96
1 97
1 98
1 99
CELL_TYPES 100
1
1
1
1
1
1
1
1
1
1
1
1
1
1
1
1
1
1
1
1
1
1
1
1
1
1
1
1
1
1
1
1
1
1
1
1
1
1
1
1
1
1
1
1
1
1
1
1
1
1
1
1
1
1
1
1
1
1
1
1
1
1
1
1
1
1
1
1
1
1
1
1
1
1
1
1
1
1
1
1
1
1
1
1
1
1
1
1
1
1
1
1
1
1
1
1
1
1
1
1
POINT_DATA 100
SCALARS pressure double 1
LOOKUP_TABLE default
0.00000000e+00
0.00000000e+00
0.00000000e+00
0.00000000e+00
0.00000000e+00
0.00000000e+00
0.00000000e+00
0.00000000e+00
0.00000000e+00
0.00000000e+00
0.00000000e+00
0.00000000e+00
0.00000000e+00
0.00000000e+00
0.00000000e+00
0.00000000e+00
0.00000000e+00
0.00000000e+00
0.00000000e+00
0.00000000e+00
0.00000000e+00
0.00000000e+00
0.00000000e+00
0.00000000e+00
0.00000000e+00
0.00000000e+00
0.00000000e+00
0.00000000e+00
0.00000000e+00
0.00000000e+00
0.00000000e+00
0.00000000e+00
0.00000000e+00
0.00000000e+00
0.00000000e+00
0.00000000e+00
0.00000000e+00
0.00000000e+00
0.00000000e+00
0.00000000e+00
0.00000000e+00
0.00000000e+00
0.00000000e+00
0.00000000e+00
0.00000000e+00
0.00000000e+00
0.00000000e+00
0.00000000e+00
0.00000000e+00
0.00000000e+00
0.00000000e+00
0.00000000e+00
0.00000000e+00
0.00000000e+00
0.00000000e+00
0.00000000e+00
0.00000000e+00
0.00000000e+00
0.00000000e+00
0.00000000e+00
0.00000000e+00
0.00000000e+00
0.00000000e+00
0.00000000e+00
0.00000000e+00
0.00000000e+00
0.00000000e+00
0.00000000e+00
0.00000000e+00
0.00000000e+00
0.00000000e+00
0.00000000e+00
0.00000000e+00
0.00000000e+00
0.00000000e+00
0.00000000e+00
0.00000000e+00
0.00000000e+00
0.00000000e+00
0.00000000e+00
0.00000000e+00
0.00000000e+00
0.00000000e+00
0.00000000e+00
0.00000000e+00
0.00000000e+00
0.00000000e+00
0.00000000e+00
0.00000000e+00
0.00000000e+00
0.00000000e+00
0.00000000e+00
0.00000000e+00
0.00000000e+00
0.00000000e+00
0.00000000e+00
0.00000000e+00
0.00000000e+00
0.00000000e+00
0.00000000e+00
SCALARS type int 1
LOOKUP_TABLE default
0
0
0
0
0
0
0
0
0
0
0
0
0
0
0
0
0
0
0
0
0
0
0
0
0
0
0
0
0
0
0
0
0
0
0
0
0
0
0
0
0
0
0
0
0
0
0
0
0
0
0
0
0
0
0
0
0
0
0
0
0
0
0
0
0
0
0
0
0
0
0
0
0
0
0
0
0
0
0
0
0
0
0
0
0
0
0
0
0
0
0
0
0
0
0
0
0
0
0
0
VECTORS velocity double
-6.32866138e-01 -6.32866138e-01 0.0
-3.97078732e-01 -8.71616671e-01 0.0
-2.13868786e-01 -9.54258565e-01 0.0
-2.32788374e-01 -7.01165343e-01 0.0
-8.82606108e-02 -8.55498212e-01 0.0
8.82606108e-02 -8.55498212e-01 0.0
2.32788374e-01 -7.01165343e-01 0.0
2.13868786e-01 -9.54258565e-01 0.0
3.97078732e-01 -8.71616671e-01 0.0
6.32866138e-01 -6.32866138e-01 0.0
-8.71616671e-01 -3.97078732e-01 0.0
-3.58482930e-01 -3.58482930e-01 0.0
-4.43305992e-01 -5.91311706e-01 0.0
-3.37201065e-01 -2.51182970e-01 0.0
-3.69809432e-01 -8.32915793e-01 0.0
3.69809432e-01 -8.32915793e-01 0.0
3.37201068e-01 -2.51182972e-01 0.0
4.43305992e-01 -5.91311706e-01 0.0
3.58482930e-01 -3.58482930e-01 0.0
8.71616671e-01 -3.97078732e-01 0.0
-9.54258565e-01 -2.13868786e-01 0.0
-5.91311706e-01 -4.43305992e-01 0.0
-4.67734242e-01 -4.67734242e-01 0.0
-2.25336580e-01 -2.96727365e-01 0.0
-2.52502151e-01 -3.59951040e-01 0.0
2.52502154e-01 -3.59951042e-01 0.0
2.25336586e-01 -2.96727380e-01 0.0
4.67734242e-01 -4.67734242e-01 0.0
5.91311706e-01 -4.43305992e-01 0.0
9.54258565e-01 -2.13868786e-01 0.0
-7.01165343e-01 -2.32788374e-01 0.0
-2.51182970e-01 -3.37201065e-01 0.0
-2.96727365e-01 -2.25336580e-01 0.0
-2.45107655e-01 -2.45107655e-01 0.0
3.41967239e-01 -3.98393579e-01 0.0
-3.41437196e-01 -3.99068384e-01 0.0
2.45224367e-01 -2.45224367e-01 0.0
2.96727380e-01 -2.25336586e-01 0.0
2.51182972e-01 -3.37201068e-01 0.0
7.01165343e-01 -2.32788374e-01 0.0
-8.55498212e-01 -8.82606108e-02 0.0
-8.32915793e-01 -3.69809432e-01 0.0
-3.59951040e-01 -2.52502151e-01 0.0
-3.98393579e-01 3.41967239e-01 0.0
-7.36672634e-02 -7.36672634e-02 0.0
4.48464012e-02 -4.48464012e-02 0.0
3.99068384e-01 3.41437196e-01 0.0
3.59951042e-01 -2.52502154e-01 0.0
8.32915793e-01 -3.69809432e-01 0.0
8.55498212e-01 -8.82606108e-02 0.0
-8.55498212e-01 8.82606108e-02 0.0
-8.32915793e-01 3.69809432e-01 0.0
-3.59951042e-01 2.52502154e-01 0.0
-3.99068384e-01 -3.41437196e-01 0.0
-4.48464012e-02 4.48464012e-02 0.0
7.36672634e-02 7.36672634e-02 0.0
3.98393579e-01 -3.41967239e-01 0.0
3.59951040e-01 2.52502151e-01 0.0
8.32915793e-01 3.69809432e-01 0.0
8.55498212e-01 8.82606108e-02 0.0
-7.01165343e-01 2.32788374e-01 0.0
-2.51182972e-01 3.37201068e-01 0.0
-2.96727380e-01 2.25336586e-01 0.0
-2.45224367e-01 2.45224367e-01 0.0
3.41437196e-01 3.99068384e-01 0.0
-3.41967239e-01 3.98393579e-01 0.0
2.45107655e-01 2.45107655e-01 0.0
2.96727365e-01 2.25336580e-01 0.0
2.51182970e-01 3.37201065e-01 0.0
7.01165343e-01 2.32788374e-01 0.0
-9.54258565e-01 2.13868786e-01 0.0
-5.91311706e-01 4.43305992e-01 0.0
-4.67734242e-01 4.67734242e-01 0.0
-2.25336586e-01 2.96727380e-01 0.0
-2.52502154e-01 3.59951042e-01 0.0
2.52502151e-01 3.59951040e-01 0.0
2.25336580e-01 2.96727365e-01 0.0
4.67734242e-01 4.67734242e-01 0.0
5.91311706e-01 4.43305992e-01 0.0
9.54258565e-01 2.13868786e-01 0.0
-8.71616671e-01 3.97078732e-01 0.0
-3.58482930e-01 3.58482930e-01 0.0
-4.43305992e-01 5.91311706e-01 0.0
-3.37201068e-01 2.51182972e-01 0.0
-3.69809432e-01 8.32915793e-01 0.0
3.69809432e-01 8.32915793e-01 0.0
3.37201065e-01 2.51182970e-01 0.0
4.43305992e-01 5.91311706e-01 0.0
3.58482930e-01 3.58482930e-01 0.0
8.71616671e-01 3.97078732e-01 0.0
-6.32866138e-01 6.32866138e-01 0.0
-3.97078732e-01 8.71616671e-01 0.0
-2.13868786e-01 9.54258565e-01 0.0
-2.32788374e-01 7.01165343e-01 0.0
-8.82606108e-02 8.55498212e-01 0.0
8.82606108e-02 8.55498212e-01 0.0
2.32788374e-01 7.01165343e-01 0.0
2.13868786e-01 9.54258565e-01 0.0
3.97078732e-01 8.71616671e-01 0.0
6.32866138e-01 6.32866138e-01 0.0
