# vtk DataFile Version 3.0
MPS Simulation Step 2000
ASCII
DATASET UNSTRUCTURED_GRID
POINTS 24 double
-5.92382560e-02 -6.19635273e-02 0.0
5.92382543e-02 -6.19635260e-02 0.0
-4.53761975e-02 -6.22653300e-02 0.0
4.53762132e-02 -6.22653363e-02 0.0
-6.19635273e-02 -5.92382560e-02 0.0
-6.22653300e-02 -4.53761975e-02 0.0
-4.84230848e-02 -4.84230848e-02 0.0
4.84438075e-02 -4.84438075e-02 0.0
6.22653363e-02 -4.53762132e-02 0.0
6.19635260e-02 -5.92382543e-02 0.0
-1.34817114e-02 -1.34817114e-02 0.0
8.41885288e-03 -8.41885288e-03 0.0
-8.41885288e-03 8.41885288e-03 0.0
1.34817114e-02 1.34817114e-02 0.0
-6.19635260e-02 5.92382543e-02 0.0
-6.22653363e-02 4.53762132e-02 0.0
-4.84438075e-02 4.84438075e-02 0.0
4.84230848e-02 4.84230848e-02 0.0
6.22653300e-02 4.53761975e-02 0.0
6.19635273e-02 5.92382560e-02 0.0
-4.53762132e-02 6.22653363e-02 0.0
4.53761975e-02 6.22653300e-02 0.0
-5.92382543e-02 6.19635260e-02 0.0
5.92382560e-02 6.19635273e-02 0.0
CELLS 24 48
1 0
1 1
1 2
1 3
1 4
1 5
1 6
1 7
1 8
1 9
1 10
1 11
1 12
1 13
1 14
1 15
1 16
1 17
1 18
1 19
1 20
1 21
1 22
1 23
CELL_TYPES 24
1
1
1
1
1
1
1
1
1
1
1
1
1
1
1
1
1
1
1
1
1
1
1
1
POINT_DATA 24
SCALARS pressure double 1
LOOKUP_TABLE default
0.00000000e+00
0.00000000e+00
0.00000000e+00
0.00000000e+00
0.00000000e+00
0.00000000e+00
0.00000000e+00
0.00000000e+00
0.00000000e+00
0.00000000e+00
0.00000000e+00
0.00000000e+00
0.00000000e+00
0.00000000e+00
0.00000000e+00
0.00000000e+00
0.00000000e+00
0.00000000e+00
0.00000000e+00
0.00000000e+00
0.00000000e+00
0.00000000e+00
0.00000000e+00
0.00000000e+00
SCALARS type int 1
LOOKUP_TABLE default
0
0
0
0
0
0
0
0
0
0
0
0
0
0
0
0
0
0
0
0
0
0
0
0
VECTORS velocity double
-2.85938963e-01 -3.02240197e-01 0.0
2.85938957e-01 -3.02240176e-01 0.0
-2.25957758e-01 -2.96864034e-01 0.0
2.25957865e-01 -2.96864061e-01 0.0
-3.02240197e-01 -2.85938963e-01 0.0
-2.96864034e-01 -2.25957758e-01 0.0
-2.45104052e-01 -2.45104052e-01 0.0
2.45221383e-01 -2.45221383e-01 0.0
2.96864061e-01 -2.25957865e-01 0.0
3.02240176e-01 -2.85938957e-01 0.0
-7.30889245e-02 -7.30889245e-02 0.0
4.44438534e-02 -4.44438534e-02 0.0
-4.44438534e-02 4.44438534e-02 0.0
7.30889245e-02 7.30889245e-02 0.0
-3.02240176e-01 2.85938957e-01 0.0
-2.96864061e-01 2.25957865e-01 0.0
-2.45221383e-01 2.45221383e-01 0.0
2.45104052e-01 2.45104052e-01 0.0
2.96864034e-01 2.25957758e-01 0.0
3.02240197e-01 2.85938963e-01 0.0
-2.25957865e-01 2.96864061e-01 0.0
2.25957758e-01 2.96864034e-01 0.0
-2.85938957e-01 3.02240176e-01 0.0
2.85938963e-01 3.02240197e-01 0.0
