# vtk DataFile Version 3.0
MPS Simulation Step 450
ASCII
DATASET UNSTRUCTURED_GRID
POINTS 100 double
-3.66951408e-02 -3.66951408e-02 0.0
-2.37065966e-02 -4.64575803e-02 0.0
-1.36251457e-02 -4.95471488e-02 0.0
-1.20462180e-02 -3.99041888e-02 0.0
-4.34798429e-03 -4.46556416e-02 0.0
4.34798429e-03 -4.46556416e-02 0.0
1.20462180e-02 -3.99041888e-02 0.0
1.36251457e-02 -4.95471488e-02 0.0
2.37065966e-02 -4.64575803e-02 0.0
3.66951408e-02 -3.66951408e-02 0.0
-4.64575803e-02 -2.37065966e-02 0.0
-2.21761834e-02 -2.21761834e-02 0.0
-2.04346183e-02 -3.05398189e-02 0.0
-1.32736131e-02 -1.67591584e-02 0.0
-1.43252035e-02 -3.85977665e-02 0.0
1.43252035e-02 -3.85977665e-02 0.0
1.32736132e-02 -1.67591587e-02 0.0
2.04346183e-02 -3.05398189e-02 0.0
2.21761834e-02 -2.21761834e-02 0.0
4.64575803e-02 -2.37065966e-02 0.0
-4.95471488e-02 -1.36251457e-02 0.0
-3.05398189e-02 -2.04346183e-02 0.0
-2.12654636e-02 -2.12654636e-02 0.0
-1.03561965e-02 -1.62542563e-02 0.0
-1.04030208e-02 -1.88391589e-02 0.0
1.04030211e-02 -1.88391590e-02 0.0
1.03561968e-02 -1.62542573e-02 0.0
2.12654636e-02 -2.12654636e-02 0.0
3.05398189e-02 -2.04346183e-02 0.0
4.95471488e-02 -1.36251457e-02 0.0
-3.99041888e-02 -1.20462180e-02 0.0
-1.67591584e-02 -1.32736131e-02 0.0
-1.62542563e-02 -1.03561965e-02 0.0
-1.04321427e-02 -1.04321427e-02 0.0
-1.54066076e-03 -1.20190354e-02 0.0
1.55176648e-03 -1.20944538e-02 0.0
1.04346797e-02 -1.04346797e-02 0.0
1.62542573e-02 -1.03561968e-02 0.0
1.67591587e-02 -1.32736132e-02 0.0
3.99041888e-02 -1.20462180e-02 0.0
-4.46556416e-02 -4.34798429e-03 0.0
-3.85977665e-02 -1.43252035e-02 0.0
-1.88391589e-02 -1.04030208e-02 0.0
-1.20190354e-02 -1.54066076e-03 0.0
-2.15184334e-03 -2.15184334e-03 0.0
1.52905396e-03 -1.52905396e-03 0.0
1.20944538e-02 -1.55176648e-03 0.0
1.88391590e-02 -1.04030211e-02 0.0
3.85977665e-02 -1.43252035e-02 0.0
4.46556416e-02 -4.34798429e-03 0.0
-4.46556416e-02 4.34798429e-03 0.0
-3.85977665e-02 1.43252035e-02 0.0
-1.88391590e-02 1.04030211e-02 0.0
-1.20944538e-02 1.55176648e-03 0.0
-1.52905396e-03 1.52905396e-03 0.0
2.15184334e-03 2.15184334e-03 0.0
1.20190354e-02 1.54066076e-03 0.0
1.88391589e-02 1.04030208e-02 0.0
3.85977665e-02 1.43252035e-02 0.0
4.46556416e-02 4.34798429e-03 0.0
-3.99041888e-02 1.20462180e-02 0.0
-1.67591587e-02 1.32736132e-02 0.0
-1.62542573e-02 1.03561968e-02 0.0
-1.04346797e-02 1.04346797e-02 0.0
-1.55176648e-03 1.20944538e-02 0.0
1.54066076e-03 1.20190354e-02 0.0
1.04321427e-02 1.04321427e-02 0.0
1.62542563e-02 1.03561965e-02 0.0
1.67591584e-02 1.32736131e-02 0.0
3.99041888e-02 1.20462180e-02 0.0
-4.95471488e-02 1.36251457e-02 0.0
-3.05398189e-02 2.04346183e-02 0.0
-2.12654636e-02 2.12654636e-02 0.0
-1.03561968e-02 1.62542573e-02 0.0
-1.04030211e-02 1.88391590e-02 0.0
1.04030208e-02 1.88391589e-02 0.0
1.03561965e-02 1.62542563e-02 0.0
2.12654636e-02 2.12654636e-02 0.0
3.05398189e-02 2.04346183e-02 0.0
4.95471488e-02 1.36251457e-02 0.0
-4.64575803e-02 2.37065966e-02 0.0
-2.21761834e-02 2.21761834e-02 0.0
-2.04346183e-02 3.05398189e-02 0.0
-1.32736132e-02 1.67591587e-02 0.0
-1.43252035e-02 3.85977665e-02 0.0
1.43252035e-02 3.85977665e-02 0.0
1.32736131e-02 1.67591584e-02 0.0
2.04346183e-02 3.05398189e-02 0.0
2.21761834e-02 2.21761834e-02 0.0
4.64575803e-02 2.37065966e-02 0.0
-3.66951408e-02 3.66951408e-02 0.0
-2.37065966e-02 4.64575803e-02 0.0
-1.36251457e-02 4.95471488e-02 0.0
-1.20462180e-02 3.99041888e-02 0.0
-4.34798429e-03 4.46556416e-02 0.0
4.34798429e-03 4.46556416e-02 0.0
1.20462180e-02 3.99041888e-02 0.0
1.36251457e-02 4.95471488e-02 0.0
2.37065966e-02 4.64575803e-02 0.0
3.66951408e-02 3.66951408e-02 0.0
CELLS 100 200
1 0
1 1
1 2
1 3
1 4
1 5
1 6
1 7
1 8
1 9
1 10
1 11
1 12
1 13
1 14
1 15
1 16
1 17
1 18
1 19
1 20
1 21
1 22
1 23
1 24
1 25
1 26
1 27
1 28
1 29
1 30
1 31
1 32
1 33
1 34
1 35
1 36
1 37
1 38
1 39
1 40
1 41
1 42
1 43
1 44
1 45
1 46
1 47
1 48
1 49
1 50
1 51
1 52
1 53
1 54
1 55
1 56
1 57
1 58
1 59
1 60
1 61
1 62
1 63
1 64
1 65
1 66
1 67
1 68
1 69
1 70
1 71
1 72
1 73
1 74
1 75
1 76
1 77
1 78
1 79
1 80
1 81
1 82
1 83
1 84
1 85
1 86
1 87
1 88
1 89
1 90
1 91
1 92
1 93
1 94
1 95
1 96
1 97
1 98
1 99
CELL_TYPES 100
1
1
1
1
1
1
1
1
1
1
1
1
1
1
1
1
1
1
1
1
1
1
1
1
1
1
1
1
1
1
1
1
1
1
1
1
1
1
1
1
1
1
1
1
1
1
1
1
1
1
1
1
1
1
1
1
1
1
1
1
1
1
1
1
1
1
1
1
1
1
1
1
1
1
1
1
1
1
1
1
1
1
1
1
1
1
1
1
1
1
1
1
1
1
1
1
1
1
1
1
POINT_DATA 100
SCALARS pressure double 1
LOOKUP_TABLE default
0.00000000e+00
0.00000000e+00
0.00000000e+00
0.00000000e+00
0.00000000e+00
0.00000000e+00
0.00000000e+00
0.00000000e+00
0.00000000e+00
0.00000000e+00
0.00000000e+00
0.00000000e+00
0.00000000e+00
0.00000000e+00
0.00000000e+00
0.00000000e+00
0.00000000e+00
0.00000000e+00
0.00000000e+00
0.00000000e+00
0.00000000e+00
0.00000000e+00
0.00000000e+00
0.00000000e+00
0.00000000e+00
0.00000000e+00
0.00000000e+00
0.00000000e+00
0.00000000e+00
0.00000000e+00
0.00000000e+00
0.00000000e+00
0.00000000e+00
0.00000000e+00
0.00000000e+00
0.00000000e+00
0.00000000e+00
0.00000000e+00
0.00000000e+00
0.00000000e+00
0.00000000e+00
0.00000000e+00
0.00000000e+00
0.00000000e+00
0.00000000e+00
0.00000000e+00
0.00000000e+00
0.00000000e+00
0.00000000e+00
0.00000000e+00
0.00000000e+00
0.00000000e+00
0.00000000e+00
0.00000000e+00
0.00000000e+00
0.00000000e+00
0.00000000e+00
0.00000000e+00
0.00000000e+00
0.00000000e+00
0.00000000e+00
0.00000000e+00
0.00000000e+00
0.00000000e+00
0.00000000e+00
0.00000000e+00
0.00000000e+00
0.00000000e+00
0.00000000e+00
0.00000000e+00
0.00000000e+00
0.00000000e+00
0.00000000e+00
0.00000000e+00
0.00000000e+00
0.00000000e+00
0.00000000e+00
0.00000000e+00
0.00000000e+00
0.00000000e+00
0.00000000e+00
0.00000000e+00
0.00000000e+00
0.00000000e+00
0.00000000e+00
0.00000000e+00
0.00000000e+00
0.00000000e+00
0.00000000e+00
0.00000000e+00
0.00000000e+00
0.00000000e+00
0.00000000e+00
0.00000000e+00
0.00000000e+00
0.00000000e+00
0.00000000e+00
0.00000000e+00
0.00000000e+00
0.00000000e+00
SCALARS type int 1
LOOKUP_TABLE default
0
0
0
0
0
0
0
0
0
0
0
0
0
0
0
0
0
0
0
0
0
0
0
0
0
0
0
0
0
0
0
0
0
0
0
0
0
0
0
0
0
0
0
0
0
0
0
0
0
0
0
0
0
0
0
0
0
0
0
0
0
0
0
0
0
0
0
0
0
0
0
0
0
0
0
0
0
0
0
0
0
0
0
0
0
0
0
0
0
0
0
0
0
0
0
0
0
0
0
0
VECTORS velocity double
-6.32866138e-01 -6.32866138e-01 0.0
-3.97072407e-01 -8.71619524e-01 0.0
-2.13875645e-01 -9.54240674e-01 0.0
-2.30211597e-01 -7.76590081e-01 0.0
-8.82606736e-02 -8.55483546e-01 0.0
8.82606736e-02 -8.55483546e-01 0.0
2.30211597e-01 -7.76590081e-01 0.0
2.13875645e-01 -9.54240674e-01 0.0
3.97072407e-01 -8.71619524e-01 0.0
6.32866138e-01 -6.32866138e-01 0.0
-8.71619524e-01 -3.97072407e-01 0.0
-4.23945630e-01 -4.23945630e-01 0.0
-4.43288835e-01 -5.91269900e-01 0.0
-3.36631450e-01 -2.51634275e-01 0.0
-3.72358946e-01 -7.57510962e-01 0.0
3.72358946e-01 -7.57510962e-01 0.0
3.36631450e-01 -2.51634300e-01 0.0
4.43288835e-01 -5.91269900e-01 0.0
4.23945630e-01 -4.23945630e-01 0.0
8.71619524e-01 -3.97072407e-01 0.0
-9.54240674e-01 -2.13875645e-01 0.0
-5.91269900e-01 -4.43288835e-01 0.0
-4.02301311e-01 -4.02301311e-01 0.0
-2.25739315e-01 -2.96765792e-01 0.0
-2.52648935e-01 -3.59463438e-01 0.0
2.52648949e-01 -3.59463437e-01 0.0
2.25739356e-01 -2.96765856e-01 0.0
4.02301311e-01 -4.02301311e-01 0.0
5.91269900e-01 -4.43288835e-01 0.0
9.54240674e-01 -2.13875645e-01 0.0
-7.76590081e-01 -2.30211597e-01 0.0
-2.51634275e-01 -3.36631450e-01 0.0
-2.96765792e-01 -2.25739315e-01 0.0
-2.45086303e-01 -2.45086303e-01 0.0
-6.76024946e-02 -3.95972048e-01 0.0
6.81159053e-02 -4.00647886e-01 0.0
2.45203612e-01 -2.45203612e-01 0.0
2.96765856e-01 -2.25739356e-01 0.0
2.51634300e-01 -3.36631450e-01 0.0
7.76590081e-01 -2.30211597e-01 0.0
-8.55483546e-01 -8.82606736e-02 0.0
-7.57510962e-01 -3.72358946e-01 0.0
-3.59463438e-01 -2.52648935e-01 0.0
-3.95972048e-01 -6.76024946e-02 0.0
-7.32016914e-02 -7.32016914e-02 0.0
4.45481262e-02 -4.45481262e-02 0.0
4.00647886e-01 -6.81159053e-02 0.0
3.59463437e-01 -2.52648949e-01 0.0
7.57510962e-01 -3.72358946e-01 0.0
8.55483546e-01 -8.82606736e-02 0.0
-8.55483546e-01 8.82606736e-02 0.0
-7.57510962e-01 3.72358946e-01 0.0
-3.59463437e-01 2.52648949e-01 0.0
-4.00647886e-01 6.81159053e-02 0.0
-4.45481262e-02 4.45481262e-02 0.0
7.32016914e-02 7.32016914e-02 0.0
3.95972048e-01 6.76024946e-02 0.0
3.59463438e-01 2.52648935e-01 0.0
7.57510962e-01 3.72358946e-01 0.0
8.55483546e-01 8.82606736e-02 0.0
-7.76590081e-01 2.30211597e-01 0.0
-2.51634300e-01 3.36631450e-01 0.0
-2.96765856e-01 2.25739356e-01 0.0
-2.45203612e-01 2.45203612e-01 0.0
-6.81159053e-02 4.00647886e-01 0.0
6.76024946e-02 3.95972048e-01 0.0
2.45086303e-01 2.45086303e-01 0.0
2.96765792e-01 2.25739315e-01 0.0
2.51634275e-01 3.36631450e-01 0.0
7.76590081e-01 2.30211597e-01 0.0
-9.54240674e-01 2.13875645e-01 0.0
-5.91269900e-01 4.43288835e-01 0.0
-4.02301311e-01 4.02301311e-01 0.0
-2.25739356e-01 2.96765856e-01 0.0
-2.52648949e-01 3.59463437e-01 0.0
2.52648935e-01 3.59463438e-01 0.0
2.25739315e-01 2.96765792e-01 0.0
4.02301311e-01 4.02301311e-01 0.0
5.91269900e-01 4.43288835e-01 0.0
9.54240674e-01 2.13875645e-01 0.0
-8.71619524e-01 3.97072407e-01 0.0
-4.23945630e-01 4.23945630e-01 0.0
-4.43288835e-01 5.91269900e-01 0.0
-3.36631450e-01 2.51634300e-01 0.0
-3.72358946e-01 7.57510962e-01 0.0
3.72358946e-01 7.57510962e-01 0.0
3.36631450e-01 2.51634275e-01 0.0
4.43288835e-01 5.91269900e-01 0.0
4.23945630e-01 4.23945630e-01 0.0
8.71619524e-01 3.97072407e-01 0.0
-6.32866138e-01 6.32866138e-01 0.0
-3.97072407e-01 8.71619524e-01 0.0
-2.13875645e-01 9.54240674e-01 0.0
-2.30211597e-01 7.76590081e-01 0.0
-8.82606736e-02 8.55483546e-01 0.0
8.82606736e-02 8.55483546e-01 0.0
2.30211597e-01 7.76590081e-01 0.0
2.13875645e-01 9.54240674e-01 0.0
3.97072407e-01 8.71619524e-01 0.0
6.32866138e-01 6.32866138e-01 0.0
