# vtk DataFile Version 3.0
MPS Simulation Step 350
ASCII
DATASET UNSTRUCTURED_GRID
POINTS 100 double
-3.03664794e-02 -3.03664794e-02 0.0
-1.97358725e-02 -3.77413850e-02 0.0
-1.14863892e-02 -4.00047421e-02 0.0
-9.74499434e-03 -3.21381687e-02 0.0
-3.46537137e-03 -3.61008055e-02 0.0
3.46537137e-03 -3.61008055e-02 0.0
9.74499434e-03 -3.21381687e-02 0.0
1.14863892e-02 -4.00047421e-02 0.0
1.97358725e-02 -3.77413850e-02 0.0
3.03664794e-02 -3.03664794e-02 0.0
-3.77413850e-02 -1.97358725e-02 0.0
-1.79886676e-02 -1.79886676e-02 0.0
-1.60017288e-02 -2.46271111e-02 0.0
-9.90631128e-03 -1.42435174e-02 0.0
-1.06007206e-02 -3.10227768e-02 0.0
1.06007206e-02 -3.10227768e-02 0.0
9.90631135e-03 -1.42435175e-02 0.0
1.60017288e-02 -2.46271111e-02 0.0
1.79886676e-02 -1.79886676e-02 0.0
3.77413850e-02 -1.97358725e-02 0.0
-4.00047421e-02 -1.14863892e-02 0.0
-2.46271111e-02 -1.60017288e-02 0.0
-1.71905199e-02 -1.71905199e-02 0.0
-8.09950820e-03 -1.32866891e-02 0.0
-7.87669373e-03 -1.52437774e-02 0.0
7.87669383e-03 -1.52437774e-02 0.0
8.09950821e-03 -1.32866895e-02 0.0
1.71905199e-02 -1.71905199e-02 0.0
2.46271111e-02 -1.60017288e-02 0.0
4.00047421e-02 -1.14863892e-02 0.0
-3.21381687e-02 -9.74499434e-03 0.0
-1.42435174e-02 -9.90631128e-03 0.0
-1.32866891e-02 -8.09950820e-03 0.0
-7.98135404e-03 -7.98135404e-03 0.0
-8.63986182e-04 -8.05932527e-03 0.0
8.69956872e-04 -8.08794403e-03 0.0
7.98271791e-03 -7.98271791e-03 0.0
1.32866895e-02 -8.09950821e-03 0.0
1.42435175e-02 -9.90631135e-03 0.0
3.21381687e-02 -9.74499434e-03 0.0
-3.61008055e-02 -3.46537137e-03 0.0
-3.10227768e-02 -1.06007206e-02 0.0
-1.52437774e-02 -7.87669373e-03 0.0
-8.05932527e-03 -8.63986182e-04 0.0
-1.41918610e-03 -1.41918610e-03 0.0
1.08306479e-03 -1.08306479e-03 0.0
8.08794403e-03 -8.69956872e-04 0.0
1.52437774e-02 -7.87669383e-03 0.0
3.10227768e-02 -1.06007206e-02 0.0
3.61008055e-02 -3.46537137e-03 0.0
-3.61008055e-02 3.46537137e-03 0.0
-3.10227768e-02 1.06007206e-02 0.0
-1.52437774e-02 7.87669383e-03 0.0
-8.08794403e-03 8.69956872e-04 0.0
-1.08306479e-03 1.08306479e-03 0.0
1.41918610e-03 1.41918610e-03 0.0
8.05932527e-03 8.63986182e-04 0.0
1.52437774e-02 7.87669373e-03 0.0
3.10227768e-02 1.06007206e-02 0.0
3.61008055e-02 3.46537137e-03 0.0
-3.21381687e-02 9.74499434e-03 0.0
-1.42435175e-02 9.90631135e-03 0.0
-1.32866895e-02 8.09950821e-03 0.0
-7.98271791e-03 7.98271791e-03 0.0
-8.69956872e-04 8.08794403e-03 0.0
8.63986182e-04 8.05932527e-03 0.0
7.98135404e-03 7.98135404e-03 0.0
1.32866891e-02 8.09950820e-03 0.0
1.42435174e-02 9.90631128e-03 0.0
3.21381687e-02 9.74499434e-03 0.0
-4.00047421e-02 1.14863892e-02 0.0
-2.46271111e-02 1.60017288e-02 0.0
-1.71905199e-02 1.71905199e-02 0.0
-8.09950821e-03 1.32866895e-02 0.0
-7.87669383e-03 1.52437774e-02 0.0
7.87669373e-03 1.52437774e-02 0.0
8.09950820e-03 1.32866891e-02 0.0
1.71905199e-02 1.71905199e-02 0.0
2.46271111e-02 1.60017288e-02 0.0
4.00047421e-02 1.14863892e-02 0.0
-3.77413850e-02 1.97358725e-02 0.0
-1.79886676e-02 1.79886676e-02 0.0
-1.60017288e-02 2.46271111e-02 0.0
-9.90631135e-03 1.42435175e-02 0.0
-1.06007206e-02 3.10227768e-02 0.0
1.06007206e-02 3.10227768e-02 0.0
9.90631128e-03 1.42435174e-02 0.0
1.60017288e-02 2.46271111e-02 0.0
1.79886676e-02 1.79886676e-02 0.0
3.77413850e-02 1.97358725e-02 0.0
-3.03664794e-02 3.03664794e-02 0.0
-1.97358725e-02 3.77413850e-02 0.0
-1.14863892e-02 4.00047421e-02 0.0
-9.74499434e-03 3.21381687e-02 0.0
-3.46537137e-03 3.61008055e-02 0.0
3.46537137e-03 3.61008055e-02 0.0
9.74499434e-03 3.21381687e-02 0.0
1.14863892e-02 4.00047421e-02 0.0
1.97358725e-02 3.77413850e-02 0.0
3.03664794e-02 3.03664794e-02 0.0
CELLS 100 200
1 0
1 1
1 2
1 3
1 4
1 5
1 6
1 7
1 8
1 9
1 10
1 11
1 12
1 13
1 14
1 15
1 16
1 17
1 18
1 19
1 20
1 21
1 22
1 23
1 24
1 25
1 26
1 27
1 28
1 29
1 30
1 31
1 32
1 33
1 34
1 35
1 36
1 37
1 38
1 39
1 40
1 41
1 42
1 43
1 44
1 45
1 46
1 47
1 48
1 49
1 50
1 51
1 52
1 53
1 54
1 55
1 56
1 57
1 58
1 59
1 60
1 61
1 62
1 63
1 64
1 65
1 66
1 67
1 68
1 69
1 70
1 71
1 72
1 73
1 74
1 75
1 76
1 77
1 78
1 79
1 80
1 81
1 82
1 83
1 84
1 85
1 86
1 87
1 88
1 89
1 90
1 91
1 92
1 93
1 94
1 95
1 96
1 97
1 98
1 99
CELL_TYPES 100
1
1
1
1
1
1
1
1
1
1
1
1
1
1
1
1
1
1
1
1
1
1
1
1
1
1
1
1
1
1
1
1
1
1
1
1
1
1
1
1
1
1
1
1
1
1
1
1
1
1
1
1
1
1
1
1
1
1
1
1
1
1
1
1
1
1
1
1
1
1
1
1
1
1
1
1
1
1
1
1
1
1
1
1
1
1
1
1
1
1
1
1
1
1
1
1
1
1
1
1
POINT_DATA 100
SCALARS pressure double 1
LOOKUP_TABLE default
0.00000000e+00
0.00000000e+00
0.00000000e+00
0.00000000e+00
0.00000000e+00
0.00000000e+00
0.00000000e+00
0.00000000e+00
0.00000000e+00
0.00000000e+00
0.00000000e+00
0.00000000e+00
0.00000000e+00
0.00000000e+00
0.00000000e+00
0.00000000e+00
0.00000000e+00
0.00000000e+00
0.00000000e+00
0.00000000e+00
0.00000000e+00
0.00000000e+00
0.00000000e+00
0.00000000e+00
0.00000000e+00
0.00000000e+00
0.00000000e+00
0.00000000e+00
0.00000000e+00
0.00000000e+00
0.00000000e+00
0.00000000e+00
0.00000000e+00
0.00000000e+00
0.00000000e+00
0.00000000e+00
0.00000000e+00
0.00000000e+00
0.00000000e+00
0.00000000e+00
0.00000000e+00
0.00000000e+00
0.00000000e+00
0.00000000e+00
0.00000000e+00
0.00000000e+00
0.00000000e+00
0.00000000e+00
0.00000000e+00
0.00000000e+00
0.00000000e+00
0.00000000e+00
0.00000000e+00
0.00000000e+00
0.00000000e+00
0.00000000e+00
0.00000000e+00
0.00000000e+00
0.00000000e+00
0.00000000e+00
0.00000000e+00
0.00000000e+00
0.00000000e+00
0.00000000e+00
0.00000000e+00
0.00000000e+00
0.00000000e+00
0.00000000e+00
0.00000000e+00
0.00000000e+00
0.00000000e+00
0.00000000e+00
0.00000000e+00
0.00000000e+00
0.00000000e+00
0.00000000e+00
0.00000000e+00
0.00000000e+00
0.00000000e+00
0.00000000e+00
0.00000000e+00
0.00000000e+00
0.00000000e+00
0.00000000e+00
0.00000000e+00
0.00000000e+00
0.00000000e+00
0.00000000e+00
0.00000000e+00
0.00000000e+00
0.00000000e+00
0.00000000e+00
0.00000000e+00
0.00000000e+00
0.00000000e+00
0.00000000e+00
0.00000000e+00
0.00000000e+00
0.00000000e+00
0.00000000e+00
SCALARS type int 1
LOOKUP_TABLE default
0
0
0
0
0
0
0
0
0
0
0
0
0
0
0
0
0
0
0
0
0
0
0
0
0
0
0
0
0
0
0
0
0
0
0
0
0
0
0
0
0
0
0
0
0
0
0
0
0
0
0
0
0
0
0
0
0
0
0
0
0
0
0
0
0
0
0
0
0
0
0
0
0
0
0
0
0
0
0
0
0
0
0
0
0
0
0
0
0
0
0
0
0
0
0
0
0
0
0
0
VECTORS velocity double
-6.32866138e-01 -6.32866138e-01 0.0
-3.97072407e-01 -8.71619524e-01 0.0
-2.13875645e-01 -9.54240674e-01 0.0
-2.30002701e-01 -7.76617735e-01 0.0
-8.82634879e-02 -8.55484053e-01 0.0
8.82634879e-02 -8.55484053e-01 0.0
2.30002701e-01 -7.76617735e-01 0.0
2.13875645e-01 -9.54240674e-01 0.0
3.97072407e-01 -8.71619524e-01 0.0
6.32866138e-01 -6.32866138e-01 0.0
-8.71619524e-01 -3.97072407e-01 0.0
-3.58709157e-01 -3.58709157e-01 0.0
-4.43289685e-01 -5.91274714e-01 0.0
-3.36848318e-01 -2.51479510e-01 0.0
-3.72568752e-01 -7.57482802e-01 0.0
3.72568752e-01 -7.57482802e-01 0.0
3.36848327e-01 -2.51479526e-01 0.0
4.43289685e-01 -5.91274714e-01 0.0
3.58709157e-01 -3.58709157e-01 0.0
8.71619524e-01 -3.97072407e-01 0.0
-9.54240674e-01 -2.13875645e-01 0.0
-5.91274714e-01 -4.43289685e-01 0.0
-4.67532238e-01 -4.67532238e-01 0.0
-2.25583419e-01 -2.96748081e-01 0.0
-2.52609911e-01 -3.59630907e-01 0.0
2.52609924e-01 -3.59630913e-01 0.0
2.25583431e-01 -2.96748133e-01 0.0
4.67532238e-01 -4.67532238e-01 0.0
5.91274714e-01 -4.43289685e-01 0.0
9.54240674e-01 -2.13875645e-01 0.0
-7.76617735e-01 -2.30002701e-01 0.0
-2.51479510e-01 -3.36848318e-01 0.0
-2.96748081e-01 -2.25583419e-01 0.0
-2.45069604e-01 -2.45069604e-01 0.0
-6.77535579e-02 -3.95976653e-01 0.0
6.82678857e-02 -4.00661275e-01 0.0
2.45186884e-01 -2.45186884e-01 0.0
2.96748133e-01 -2.25583431e-01 0.0
2.51479526e-01 -3.36848327e-01 0.0
7.76617735e-01 -2.30002701e-01 0.0
-8.55484053e-01 -8.82634879e-02 0.0
-7.57482802e-01 -3.72568752e-01 0.0
-3.59630907e-01 -2.52609911e-01 0.0
-3.95976653e-01 -6.77535579e-02 0.0
-7.33448145e-02 -7.33448145e-02 0.0
4.46592574e-02 -4.46592574e-02 0.0
4.00661275e-01 -6.82678857e-02 0.0
3.59630913e-01 -2.52609924e-01 0.0
7.57482802e-01 -3.72568752e-01 0.0
8.55484053e-01 -8.82634879e-02 0.0
-8.55484053e-01 8.82634879e-02 0.0
-7.57482802e-01 3.72568752e-01 0.0
-3.59630913e-01 2.52609924e-01 0.0
-4.00661275e-01 6.82678857e-02 0.0
-4.46592574e-02 4.46592574e-02 0.0
7.33448145e-02 7.33448145e-02 0.0
3.95976653e-01 6.77535579e-02 0.0
3.59630907e-01 2.52609911e-01 0.0
7.57482802e-01 3.72568752e-01 0.0
8.55484053e-01 8.82634879e-02 0.0
-7.76617735e-01 2.30002701e-01 0.0
-2.51479526e-01 3.36848327e-01 0.0
-2.96748133e-01 2.25583431e-01 0.0
-2.45186884e-01 2.45186884e-01 0.0
-6.82678857e-02 4.00661275e-01 0.0
6.77535579e-02 3.95976653e-01 0.0
2.45069604e-01 2.45069604e-01 0.0
2.96748081e-01 2.25583419e-01 0.0
2.51479510e-01 3.36848318e-01 0.0
7.76617735e-01 2.30002701e-01 0.0
-9.54240674e-01 2.13875645e-01 0.0
-5.91274714e-01 4.43289685e-01 0.0
-4.67532238e-01 4.67532238e-01 0.0
-2.25583431e-01 2.96748133e-01 0.0
-2.52609924e-01 3.59630913e-01 0.0
2.52609911e-01 3.59630907e-01 0.0
2.25583419e-01 2.96748081e-01 0.0
4.67532238e-01 4.67532238e-01 0.0
5.91274714e-01 4.43289685e-01 0.0
9.54240674e-01 2.13875645e-01 0.0
-8.71619524e-01 3.97072407e-01 0.0
-3.58709157e-01 3.58709157e-01 0.0
-4.43289685e-01 5.91274714e-01 0.0
-3.36848327e-01 2.51479526e-01 0.0
-3.72568752e-01 7.57482802e-01 0.0
3.72568752e-01 7.57482802e-01 0.0
3.36848318e-01 2.51479510e-01 0.0
4.43289685e-01 5.91274714e-01 0.0
3.58709157e-01 3.58709157e-01 0.0
8.71619524e-01 3.97072407e-01 0.0
-6.32866138e-01 6.32866138e-01 0.0
-3.97072407e-01 8.71619524e-01 0.0
-2.13875645e-01 9.54240674e-01 0.0
-2.30002701e-01 7.76617735e-01 0.0
-8.82634879e-02 8.55484053e-01 0.0
8.82634879e-02 8.55484053e-01 0.0
2.30002701e-01 7.76617735e-01 0.0
2.13875645e-01 9.54240674e-01 0.0
3.97072407e-01 8.71619524e-01 0.0
6.32866138e-01 6.32866138e-01 0.0
