# vtk DataFile Version 3.0
MPS Simulation Step 1450
ASCII
DATASET UNSTRUCTURED_GRID
POINTS 48 double
-6.45566142e-02 -6.45566142e-02 0.0
-4.35131671e-02 -4.53387625e-02 0.0
4.35131657e-02 -4.53387623e-02 0.0
6.45566142e-02 -6.45566142e-02 0.0
-6.15097270e-02 -6.15097270e-02 0.0
-3.29485208e-02 -4.59378081e-02 0.0
-3.56679993e-02 -5.47658776e-02 0.0
3.56680010e-02 -5.47658777e-02 0.0
3.29485306e-02 -4.59378130e-02 0.0
6.15097270e-02 -6.15097270e-02 0.0
-4.53387625e-02 -4.35131671e-02 0.0
-4.59378081e-02 -3.29485208e-02 0.0
-3.49423619e-02 -3.49423619e-02 0.0
-8.28957698e-03 -5.16166307e-02 0.0
8.35202377e-03 -5.21588520e-02 0.0
3.49566314e-02 -3.49566314e-02 0.0
4.59378130e-02 -3.29485306e-02 0.0
4.53387623e-02 -4.35131657e-02 0.0
-5.47658776e-02 -3.56679993e-02 0.0
-5.16166307e-02 -8.28957698e-03 0.0
-9.46182055e-03 -9.46182055e-03 0.0
5.97444094e-03 -5.97444094e-03 0.0
5.21588520e-02 -8.35202377e-03 0.0
5.47658777e-02 -3.56680010e-02 0.0
-5.47658777e-02 3.56680010e-02 0.0
-5.21588520e-02 8.35202377e-03 0.0
-5.97444094e-03 5.97444094e-03 0.0
9.46182055e-03 9.46182055e-03 0.0
5.16166307e-02 8.28957698e-03 0.0
5.47658776e-02 3.56679993e-02 0.0
-4.53387623e-02 4.35131657e-02 0.0
-4.59378130e-02 3.29485306e-02 0.0
-3.49566314e-02 3.49566314e-02 0.0
-8.35202377e-03 5.21588520e-02 0.0
8.28957698e-03 5.16166307e-02 0.0
3.49423619e-02 3.49423619e-02 0.0
4.59378081e-02 3.29485208e-02 0.0
4.53387625e-02 4.35131671e-02 0.0
-6.15097270e-02 6.15097270e-02 0.0
-3.29485306e-02 4.59378130e-02 0.0
-3.56680010e-02 5.47658777e-02 0.0
3.56679993e-02 5.47658776e-02 0.0
3.29485208e-02 4.59378081e-02 0.0
6.15097270e-02 6.15097270e-02 0.0
-6.45566142e-02 6.45566142e-02 0.0
-4.35131657e-02 4.53387623e-02 0.0
4.35131671e-02 4.53387625e-02 0.0
6.45566142e-02 6.45566142e-02 0.0
CELLS 48 96
1 0
1 1
1 2
1 3
1 4
1 5
1 6
1 7
1 8
1 9
1 10
1 11
1 12
1 13
1 14
1 15
1 16
1 17
1 18
1 19
1 20
1 21
1 22
1 23
1 24
1 25
1 26
1 27
1 28
1 29
1 30
1 31
1 32
1 33
1 34
1 35
1 36
1 37
1 38
1 39
1 40
1 41
1 42
1 43
1 44
1 45
1 46
1 47
CELL_TYPES 48
1
1
1
1
1
1
1
1
1
1
1
1
1
1
1
1
1
1
1
1
1
1
1
1
1
1
1
1
1
1
1
1
1
1
1
1
1
1
1
1
1
1
1
1
1
1
1
1
POINT_DATA 48
SCALARS pressure double 1
LOOKUP_TABLE default
0.00000000e+00
0.00000000e+00
0.00000000e+00
0.00000000e+00
0.00000000e+00
0.00000000e+00
0.00000000e+00
0.00000000e+00
0.00000000e+00
0.00000000e+00
0.00000000e+00
0.00000000e+00
0.00000000e+00
0.00000000e+00
0.00000000e+00
0.00000000e+00
0.00000000e+00
0.00000000e+00
0.00000000e+00
0.00000000e+00
0.00000000e+00
0.00000000e+00
0.00000000e+00
0.00000000e+00
0.00000000e+00
0.00000000e+00
0.00000000e+00
0.00000000e+00
0.00000000e+00
0.00000000e+00
0.00000000e+00
0.00000000e+00
0.00000000e+00
0.00000000e+00
0.00000000e+00
0.00000000e+00
0.00000000e+00
0.00000000e+00
0.00000000e+00
0.00000000e+00
0.00000000e+00
0.00000000e+00
0.00000000e+00
0.00000000e+00
0.00000000e+00
0.00000000e+00
0.00000000e+00
0.00000000e+00
SCALARS type int 1
LOOKUP_TABLE default
0
0
0
0
0
0
0
0
0
0
0
0
0
0
0
0
0
0
0
0
0
0
0
0
0
0
0
0
0
0
0
0
0
0
0
0
0
0
0
0
0
0
0
0
0
0
0
0
VECTORS velocity double
-4.23726557e-01 -4.23726557e-01 0.0
-2.85875215e-01 -3.02303945e-01 0.0
2.85875210e-01 -3.02303924e-01 0.0
4.23726557e-01 -4.23726557e-01 0.0
-4.02520385e-01 -4.02520385e-01 0.0
-2.25957758e-01 -2.96864034e-01 0.0
-2.52640322e-01 -3.59224181e-01 0.0
2.52640337e-01 -3.59224181e-01 0.0
2.25957865e-01 -2.96864061e-01 0.0
4.02520385e-01 -4.02520385e-01 0.0
-3.02303945e-01 -2.85875215e-01 0.0
-2.96864034e-01 -2.25957758e-01 0.0
-2.45104052e-01 -2.45104052e-01 0.0
-6.74764540e-02 -3.95976390e-01 0.0
6.79898647e-02 -4.00643544e-01 0.0
2.45221383e-01 -2.45221383e-01 0.0
2.96864061e-01 -2.25957865e-01 0.0
3.02303924e-01 -2.85875210e-01 0.0
-3.59224181e-01 -2.52640322e-01 0.0
-3.95976390e-01 -6.74764540e-02 0.0
-7.30889245e-02 -7.30889245e-02 0.0
4.44438534e-02 -4.44438534e-02 0.0
4.00643544e-01 -6.79898647e-02 0.0
3.59224181e-01 -2.52640337e-01 0.0
-3.59224181e-01 2.52640337e-01 0.0
-4.00643544e-01 6.79898647e-02 0.0
-4.44438534e-02 4.44438534e-02 0.0
7.30889245e-02 7.30889245e-02 0.0
3.95976390e-01 6.74764540e-02 0.0
3.59224181e-01 2.52640322e-01 0.0
-3.02303924e-01 2.85875210e-01 0.0
-2.96864061e-01 2.25957865e-01 0.0
-2.45221383e-01 2.45221383e-01 0.0
-6.79898647e-02 4.00643544e-01 0.0
6.74764540e-02 3.95976390e-01 0.0
2.45104052e-01 2.45104052e-01 0.0
2.96864034e-01 2.25957758e-01 0.0
3.02303945e-01 2.85875215e-01 0.0
-4.02520385e-01 4.02520385e-01 0.0
-2.25957865e-01 2.96864061e-01 0.0
-2.52640337e-01 3.59224181e-01 0.0
2.52640322e-01 3.59224181e-01 0.0
2.25957758e-01 2.96864034e-01 0.0
4.02520385e-01 4.02520385e-01 0.0
-4.23726557e-01 4.23726557e-01 0.0
-2.85875210e-01 3.02303924e-01 0.0
2.85875215e-01 3.02303945e-01 0.0
4.23726557e-01 4.23726557e-01 0.0
