# vtk DataFile Version 3.0
MPS Simulation Step 750
ASCII
DATASET UNSTRUCTURED_GRID
POINTS 76 double
-5.56811250e-02 -5.56811250e-02 0.0
-1.89559181e-02 -6.32014413e-02 0.0
1.89559181e-02 -6.32014413e-02 0.0
5.56811250e-02 -5.56811250e-02 0.0
-3.48926853e-02 -3.48926853e-02 0.0
-3.37332834e-02 -4.82779159e-02 0.0
-2.33663054e-02 -2.43130015e-02 0.0
-2.54926197e-02 -6.13235453e-02 0.0
2.54926197e-02 -6.13235453e-02 0.0
2.33663045e-02 -2.43130027e-02 0.0
3.37332834e-02 -4.82779159e-02 0.0
3.48926853e-02 -3.48926853e-02 0.0
-4.82779159e-02 -3.37332834e-02 0.0
-3.33363699e-02 -3.33363699e-02 0.0
-1.71318674e-02 -2.51580528e-02 0.0
-1.79828662e-02 -2.96194578e-02 0.0
1.79828669e-02 -2.96194579e-02 0.0
1.71318699e-02 -2.51580556e-02 0.0
3.33363699e-02 -3.33363699e-02 0.0
4.82779159e-02 -3.37332834e-02 0.0
-6.32014413e-02 -1.89559181e-02 0.0
-2.43130015e-02 -2.33663054e-02 0.0
-2.51580528e-02 -1.71318674e-02 0.0
-1.77850807e-02 -1.77850807e-02 0.0
-3.56622075e-03 -2.38982835e-02 0.0
3.59272879e-03 -2.41138038e-02 0.0
1.77911371e-02 -1.77911371e-02 0.0
2.51580556e-02 -1.71318699e-02 0.0
2.43130027e-02 -2.33663045e-02 0.0
6.32014413e-02 -1.89559181e-02 0.0
-6.13235453e-02 -2.54926197e-02 0.0
-2.96194578e-02 -1.79828662e-02 0.0
-2.38982835e-02 -3.56622075e-03 0.0
-4.34559318e-03 -4.34559318e-03 0.0
2.86336959e-03 -2.86336959e-03 0.0
2.41138038e-02 -3.59272879e-03 0.0
2.96194579e-02 -1.79828669e-02 0.0
6.13235453e-02 -2.54926197e-02 0.0
-6.13235453e-02 2.54926197e-02 0.0
-2.96194579e-02 1.79828669e-02 0.0
-2.41138038e-02 3.59272879e-03 0.0
-2.86336959e-03 2.86336959e-03 0.0
4.34559318e-03 4.34559318e-03 0.0
2.38982835e-02 3.56622075e-03 0.0
2.96194578e-02 1.79828662e-02 0.0
6.13235453e-02 2.54926197e-02 0.0
-6.32014413e-02 1.89559181e-02 0.0
-2.43130027e-02 2.33663045e-02 0.0
-2.51580556e-02 1.71318699e-02 0.0
-1.77911371e-02 1.77911371e-02 0.0
-3.59272879e-03 2.41138038e-02 0.0
3.56622075e-03 2.38982835e-02 0.0
1.77850807e-02 1.77850807e-02 0.0
2.51580528e-02 1.71318674e-02 0.0
2.43130015e-02 2.33663054e-02 0.0
6.32014413e-02 1.89559181e-02 0.0
-4.82779159e-02 3.37332834e-02 0.0
-3.33363699e-02 3.33363699e-02 0.0
-1.71318699e-02 2.51580556e-02 0.0
-1.79828669e-02 2.96194579e-02 0.0
1.79828662e-02 2.96194578e-02 0.0
1.71318674e-02 2.51580528e-02 0.0
3.33363699e-02 3.33363699e-02 0.0
4.82779159e-02 3.37332834e-02 0.0
-3.48926853e-02 3.48926853e-02 0.0
-3.37332834e-02 4.82779159e-02 0.0
-2.33663045e-02 2.43130027e-02 0.0
-2.54926197e-02 6.13235453e-02 0.0
2.54926197e-02 6.13235453e-02 0.0
2.33663054e-02 2.43130015e-02 0.0
3.37332834e-02 4.82779159e-02 0.0
3.48926853e-02 3.48926853e-02 0.0
-5.56811250e-02 5.56811250e-02 0.0
-1.89559181e-02 6.32014413e-02 0.0
1.89559181e-02 6.32014413e-02 0.0
5.56811250e-02 5.56811250e-02 0.0
CELLS 76 152
1 0
1 1
1 2
1 3
1 4
1 5
1 6
1 7
1 8
1 9
1 10
1 11
1 12
1 13
1 14
1 15
1 16
1 17
1 18
1 19
1 20
1 21
1 22
1 23
1 24
1 25
1 26
1 27
1 28
1 29
1 30
1 31
1 32
1 33
1 34
1 35
1 36
1 37
1 38
1 39
1 40
1 41
1 42
1 43
1 44
1 45
1 46
1 47
1 48
1 49
1 50
1 51
1 52
1 53
1 54
1 55
1 56
1 57
1 58
1 59
1 60
1 61
1 62
1 63
1 64
1 65
1 66
1 67
1 68
1 69
1 70
1 71
1 72
1 73
1 74
1 75
CELL_TYPES 76
1
1
1
1
1
1
1
1
1
1
1
1
1
1
1
1
1
1
1
1
1
1
1
1
1
1
1
1
1
1
1
1
1
1
1
1
1
1
1
1
1
1
1
1
1
1
1
1
1
1
1
1
1
1
1
1
1
1
1
1
1
1
1
1
1
1
1
1
1
1
1
1
1
1
1
1
POINT_DATA 76
SCALARS pressure double 1
LOOKUP_TABLE default
0.00000000e+00
0.00000000e+00
0.00000000e+00
0.00000000e+00
0.00000000e+00
0.00000000e+00
0.00000000e+00
0.00000000e+00
0.00000000e+00
0.00000000e+00
0.00000000e+00
0.00000000e+00
0.00000000e+00
0.00000000e+00
0.00000000e+00
0.00000000e+00
0.00000000e+00
0.00000000e+00
0.00000000e+00
0.00000000e+00
0.00000000e+00
0.00000000e+00
0.00000000e+00
0.00000000e+00
0.00000000e+00
0.00000000e+00
0.00000000e+00
0.00000000e+00
0.00000000e+00
0.00000000e+00
0.00000000e+00
0.00000000e+00
0.00000000e+00
0.00000000e+00
0.00000000e+00
0.00000000e+00
0.00000000e+00
0.00000000e+00
0.00000000e+00
0.00000000e+00
0.00000000e+00
0.00000000e+00
0.00000000e+00
0.00000000e+00
0.00000000e+00
0.00000000e+00
0.00000000e+00
0.00000000e+00
0.00000000e+00
0.00000000e+00
0.00000000e+00
0.00000000e+00
0.00000000e+00
0.00000000e+00
0.00000000e+00
0.00000000e+00
0.00000000e+00
0.00000000e+00
0.00000000e+00
0.00000000e+00
0.00000000e+00
0.00000000e+00
0.00000000e+00
0.00000000e+00
0.00000000e+00
0.00000000e+00
0.00000000e+00
0.00000000e+00
0.00000000e+00
0.00000000e+00
0.00000000e+00
0.00000000e+00
0.00000000e+00
0.00000000e+00
0.00000000e+00
0.00000000e+00
SCALARS type int 1
LOOKUP_TABLE default
0
0
0
0
0
0
0
0
0
0
0
0
0
0
0
0
0
0
0
0
0
0
0
0
0
0
0
0
0
0
0
0
0
0
0
0
0
0
0
0
0
0
0
0
0
0
0
0
0
0
0
0
0
0
0
0
0
0
0
0
0
0
0
0
0
0
0
0
0
0
0
0
0
0
0
0
VECTORS velocity double
-6.32866138e-01 -6.32866138e-01 0.0
-2.30377283e-01 -7.76567843e-01 0.0
2.30377283e-01 -7.76567843e-01 0.0
6.32866138e-01 -6.32866138e-01 0.0
-4.23834303e-01 -4.23834303e-01 0.0
-4.43288835e-01 -5.91269900e-01 0.0
-3.36206091e-01 -2.51983600e-01 0.0
-3.72193260e-01 -7.57533200e-01 0.0
3.72193260e-01 -7.57533200e-01 0.0
3.36206036e-01 -2.51983628e-01 0.0
4.43288835e-01 -5.91269900e-01 0.0
4.23834303e-01 -4.23834303e-01 0.0
-5.91269900e-01 -4.43288835e-01 0.0
-4.02412638e-01 -4.02412638e-01 0.0
-2.25926148e-01 -2.96818928e-01 0.0
-2.52659951e-01 -3.59271413e-01 0.0
2.52659966e-01 -3.59271412e-01 0.0
2.25926244e-01 -2.96818975e-01 0.0
4.02412638e-01 -4.02412638e-01 0.0
5.91269900e-01 -4.43288835e-01 0.0
-7.76567843e-01 -2.30377283e-01 0.0
-2.51983600e-01 -3.36206091e-01 0.0
-2.96818928e-01 -2.25926148e-01 0.0
-2.45103376e-01 -2.45103376e-01 0.0
-6.74786896e-02 -3.95976313e-01 0.0
6.79921003e-02 -4.00643621e-01 0.0
2.45220698e-01 -2.45220698e-01 0.0
2.96818975e-01 -2.25926244e-01 0.0
2.51983628e-01 -3.36206036e-01 0.0
7.76567843e-01 -2.30377283e-01 0.0
-7.57533200e-01 -3.72193260e-01 0.0
-3.59271413e-01 -2.52659951e-01 0.0
-3.95976313e-01 -6.74786896e-02 0.0
-7.30904799e-02 -7.30904799e-02 0.0
4.44447992e-02 -4.44447992e-02 0.0
4.00643621e-01 -6.79921003e-02 0.0
3.59271412e-01 -2.52659966e-01 0.0
7.57533200e-01 -3.72193260e-01 0.0
-7.57533200e-01 3.72193260e-01 0.0
-3.59271412e-01 2.52659966e-01 0.0
-4.00643621e-01 6.79921003e-02 0.0
-4.44447992e-02 4.44447992e-02 0.0
7.30904799e-02 7.30904799e-02 0.0
3.95976313e-01 6.74786896e-02 0.0
3.59271413e-01 2.52659951e-01 0.0
7.57533200e-01 3.72193260e-01 0.0
-7.76567843e-01 2.30377283e-01 0.0
-2.51983628e-01 3.36206036e-01 0.0
-2.96818975e-01 2.25926244e-01 0.0
-2.45220698e-01 2.45220698e-01 0.0
-6.79921003e-02 4.00643621e-01 0.0
6.74786896e-02 3.95976313e-01 0.0
2.45103376e-01 2.45103376e-01 0.0
2.96818928e-01 2.25926148e-01 0.0
2.51983600e-01 3.36206091e-01 0.0
7.76567843e-01 2.30377283e-01 0.0
-5.91269900e-01 4.43288835e-01 0.0
-4.02412638e-01 4.02412638e-01 0.0
-2.25926244e-01 2.96818975e-01 0.0
-2.52659966e-01 3.59271412e-01 0.0
2.52659951e-01 3.59271413e-01 0.0
2.25926148e-01 2.96818928e-01 0.0
4.02412638e-01 4.02412638e-01 0.0
5.91269900e-01 4.43288835e-01 0.0
-4.23834303e-01 4.23834303e-01 0.0
-4.43288835e-01 5.91269900e-01 0.0
-3.36206036e-01 2.51983628e-01 0.0
-3.72193260e-01 7.57533200e-01 0.0
3.72193260e-01 7.57533200e-01 0.0
3.36206091e-01 2.51983600e-01 0.0
4.43288835e-01 5.91269900e-01 0.0
4.23834303e-01 4.23834303e-01 0.0
-6.32866138e-01 6.32866138e-01 0.0
-2.30377283e-01 7.76567843e-01 0.0
2.30377283e-01 7.76567843e-01 0.0
6.32866138e-01 6.32866138e-01 0.0
