# vtk DataFile Version 3.0
MPS Simulation Step 1950
ASCII
DATASET UNSTRUCTURED_GRID
POINTS 24 double
-5.78085714e-02 -6.04523161e-02 0.0
5.78085697e-02 -6.04523149e-02 0.0
-4.42464087e-02 -6.07810098e-02 0.0
4.42464239e-02 -6.07810160e-02 0.0
-6.04523161e-02 -5.78085714e-02 0.0
-6.07810098e-02 -4.42464087e-02 0.0
-4.71975645e-02 -4.71975645e-02 0.0
4.72177006e-02 -4.72177006e-02 0.0
6.07810160e-02 -4.42464239e-02 0.0
6.04523149e-02 -5.78085697e-02 0.0
-1.31162668e-02 -1.31162668e-02 0.0
8.19663361e-03 -8.19663361e-03 0.0
-8.19663361e-03 8.19663361e-03 0.0
1.31162668e-02 1.31162668e-02 0.0
-6.04523149e-02 5.78085697e-02 0.0
-6.07810160e-02 4.42464239e-02 0.0
-4.72177006e-02 4.72177006e-02 0.0
4.71975645e-02 4.71975645e-02 0.0
6.07810098e-02 4.42464087e-02 0.0
6.04523161e-02 5.78085714e-02 0.0
-4.42464239e-02 6.07810160e-02 0.0
4.42464087e-02 6.07810098e-02 0.0
-5.78085697e-02 6.04523149e-02 0.0
5.78085714e-02 6.04523161e-02 0.0
CELLS 24 48
1 0
1 1
1 2
1 3
1 4
1 5
1 6
1 7
1 8
1 9
1 10
1 11
1 12
1 13
1 14
1 15
1 16
1 17
1 18
1 19
1 20
1 21
1 22
1 23
CELL_TYPES 24
1
1
1
1
1
1
1
1
1
1
1
1
1
1
1
1
1
1
1
1
1
1
1
1
POINT_DATA 24
SCALARS pressure double 1
LOOKUP_TABLE default
0.00000000e+00
0.00000000e+00
0.00000000e+00
0.00000000e+00
0.00000000e+00
0.00000000e+00
0.00000000e+00
0.00000000e+00
0.00000000e+00
0.00000000e+00
0.00000000e+00
0.00000000e+00
0.00000000e+00
0.00000000e+00
0.00000000e+00
0.00000000e+00
0.00000000e+00
0.00000000e+00
0.00000000e+00
0.00000000e+00
0.00000000e+00
0.00000000e+00
0.00000000e+00
0.00000000e+00
SCALARS type int 1
LOOKUP_TABLE default
0
0
0
0
0
0
0
0
0
0
0
0
0
0
0
0
0
0
0
0
0
0
0
0
VECTORS velocity double
-2.85934752e-01 -3.02244407e-01 0.0
2.85934747e-01 -3.02244387e-01 0.0
-2.25957758e-01 -2.96864034e-01 0.0
2.25957865e-01 -2.96864061e-01 0.0
-3.02244407e-01 -2.85934752e-01 0.0
-2.96864034e-01 -2.25957758e-01 0.0
-2.45104052e-01 -2.45104052e-01 0.0
2.45221383e-01 -2.45221383e-01 0.0
2.96864061e-01 -2.25957865e-01 0.0
3.02244387e-01 -2.85934747e-01 0.0
-7.30889245e-02 -7.30889245e-02 0.0
4.44438534e-02 -4.44438534e-02 0.0
-4.44438534e-02 4.44438534e-02 0.0
7.30889245e-02 7.30889245e-02 0.0
-3.02244387e-01 2.85934747e-01 0.0
-2.96864061e-01 2.25957865e-01 0.0
-2.45221383e-01 2.45221383e-01 0.0
2.45104052e-01 2.45104052e-01 0.0
2.96864034e-01 2.25957758e-01 0.0
3.02244407e-01 2.85934752e-01 0.0
-2.25957865e-01 2.96864061e-01 0.0
2.25957758e-01 2.96864034e-01 0.0
-2.85934747e-01 3.02244387e-01 0.0
2.85934752e-01 3.02244407e-01 0.0
