# vtk DataFile Version 3.0
MPS Simulation Step 2050
ASCII
DATASET UNSTRUCTURED_GRID
POINTS 24 double
-6.06679611e-02 -6.34747181e-02 0.0
6.06679593e-02 -6.34747167e-02 0.0
-4.65059863e-02 -6.37496501e-02 0.0
4.65060026e-02 -6.37496566e-02 0.0
-6.34747181e-02 -6.06679611e-02 0.0
-6.37496501e-02 -4.65059863e-02 0.0
-4.96486050e-02 -4.96486050e-02 0.0
4.96699144e-02 -4.96699144e-02 0.0
6.37496566e-02 -4.65060026e-02 0.0
6.34747167e-02 -6.06679593e-02 0.0
-1.38471560e-02 -1.38471560e-02 0.0
8.64107215e-03 -8.64107215e-03 0.0
-8.64107215e-03 8.64107215e-03 0.0
1.38471560e-02 1.38471560e-02 0.0
-6.34747167e-02 6.06679593e-02 0.0
-6.37496566e-02 4.65060026e-02 0.0
-4.96699144e-02 4.96699144e-02 0.0
4.96486050e-02 4.96486050e-02 0.0
6.37496501e-02 4.65059863e-02 0.0
6.34747181e-02 6.06679611e-02 0.0
-4.65060026e-02 6.37496566e-02 0.0
4.65059863e-02 6.37496501e-02 0.0
-6.06679593e-02 6.34747167e-02 0.0
6.06679611e-02 6.34747181e-02 0.0
CELLS 24 48
1 0
1 1
1 2
1 3
1 4
1 5
1 6
1 7
1 8
1 9
1 10
1 11
1 12
1 13
1 14
1 15
1 16
1 17
1 18
1 19
1 20
1 21
1 22
1 23
CELL_TYPES 24
1
1
1
1
1
1
1
1
1
1
1
1
1
1
1
1
1
1
1
1
1
1
1
1
POINT_DATA 24
SCALARS pressure double 1
LOOKUP_TABLE default
0.00000000e+00
0.00000000e+00
0.00000000e+00
0.00000000e+00
0.00000000e+00
0.00000000e+00
0.00000000e+00
0.00000000e+00
0.00000000e+00
0.00000000e+00
0.00000000e+00
0.00000000e+00
0.00000000e+00
0.00000000e+00
0.00000000e+00
0.00000000e+00
0.00000000e+00
0.00000000e+00
0.00000000e+00
0.00000000e+00
0.00000000e+00
0.00000000e+00
0.00000000e+00
0.00000000e+00
SCALARS type int 1
LOOKUP_TABLE default
0
0
0
0
0
0
0
0
0
0
0
0
0
0
0
0
0
0
0
0
0
0
0
0
VECTORS velocity double
-2.85942935e-01 -3.02236224e-01 0.0
2.85942930e-01 -3.02236204e-01 0.0
-2.25957758e-01 -2.96864034e-01 0.0
2.25957865e-01 -2.96864061e-01 0.0
-3.02236224e-01 -2.85942935e-01 0.0
-2.96864034e-01 -2.25957758e-01 0.0
-2.45104052e-01 -2.45104052e-01 0.0
2.45221383e-01 -2.45221383e-01 0.0
2.96864061e-01 -2.25957865e-01 0.0
3.02236204e-01 -2.85942930e-01 0.0
-7.30889245e-02 -7.30889245e-02 0.0
4.44438534e-02 -4.44438534e-02 0.0
-4.44438534e-02 4.44438534e-02 0.0
7.30889245e-02 7.30889245e-02 0.0
-3.02236204e-01 2.85942930e-01 0.0
-2.96864061e-01 2.25957865e-01 0.0
-2.45221383e-01 2.45221383e-01 0.0
2.45104052e-01 2.45104052e-01 0.0
2.96864034e-01 2.25957758e-01 0.0
3.02236224e-01 2.85942935e-01 0.0
-2.25957865e-01 2.96864061e-01 0.0
2.25957758e-01 2.96864034e-01 0.0
-2.85942930e-01 3.02236204e-01 0.0
2.85942935e-01 3.02236224e-01 0.0
