# vtk DataFile Version 3.0
MPS Simulation Step 2450
ASCII
DATASET UNSTRUCTURED_GRID
POINTS 8 double
-5.94527671e-02 -5.94527671e-02 0.0
5.94787697e-02 -5.94787697e-02 0.0
-1.67707130e-02 -1.67707130e-02 0.0
1.04188263e-02 -1.04188263e-02 0.0
-1.04188263e-02 1.04188263e-02 0.0
1.67707130e-02 1.67707130e-02 0.0
-5.94787697e-02 5.94787697e-02 0.0
5.94527671e-02 5.94527671e-02 0.0
CELLS 8 16
1 0
1 1
1 2
1 3
1 4
1 5
1 6
1 7
CELL_TYPES 8
1
1
1
1
1
1
1
1
POINT_DATA 8
SCALARS pressure double 1
LOOKUP_TABLE default
0.00000000e+00
0.00000000e+00
0.00000000e+00
0.00000000e+00
0.00000000e+00
0.00000000e+00
0.00000000e+00
0.00000000e+00
SCALARS type int 1
LOOKUP_TABLE default
0
0
0
0
0
0
0
0
VECTORS velocity double
-2.45104052e-01 -2.45104052e-01 0.0
2.45221383e-01 -2.45221383e-01 0.0
-7.30889245e-02 -7.30889245e-02 0.0
4.44438534e-02 -4.44438534e-02 0.0
-4.44438534e-02 4.44438534e-02 0.0
7.30889245e-02 7.30889245e-02 0.0
-2.45221383e-01 2.45221383e-01 0.0
2.45104052e-01 2.45104052e-01 0.0
