# vtk DataFile Version 3.0
MPS Simulation Step 50
ASCII
DATASET UNSTRUCTURED_GRID
POINTS 100 double
-1.13804756e-02 -1.13804756e-02 0.0
-7.82281177e-03 -1.15926740e-02 0.0
-5.10695879e-03 -1.14240241e-02 0.0
-2.94230299e-03 -1.07273695e-02 0.0
-9.54900673e-04 -1.07011277e-02 0.0
9.54900673e-04 -1.07011277e-02 0.0
2.94230299e-03 -1.07273695e-02 0.0
5.10695879e-03 -1.14240241e-02 0.0
7.82281177e-03 -1.15926740e-02 0.0
1.13804756e-02 -1.13804756e-02 0.0
-1.15926740e-02 -7.82281177e-03 0.0
-7.30309464e-03 -7.30309464e-03 0.0
-3.92197135e-03 -7.41887974e-03 0.0
-2.18093505e-03 -7.32672228e-03 0.0
-9.56940999e-04 -7.53956997e-03 0.0
9.56940999e-04 -7.53956997e-03 0.0
2.18093505e-03 -7.32672228e-03 0.0
3.92197135e-03 -7.41887974e-03 0.0
7.30309464e-03 -7.30309464e-03 0.0
1.15926740e-02 -7.82281177e-03 0.0
-1.14240241e-02 -5.10695879e-03 0.0
-7.41887974e-03 -3.92197135e-03 0.0
-4.62696623e-03 -4.62696623e-03 0.0
-2.72846348e-03 -5.16190035e-03 0.0
-1.07796549e-03 -5.21636917e-03 0.0
1.07796549e-03 -5.21636917e-03 0.0
2.72846348e-03 -5.16190035e-03 0.0
4.62696623e-03 -4.62696623e-03 0.0
7.41887974e-03 -3.92197135e-03 0.0
1.14240241e-02 -5.10695879e-03 0.0
-1.07273695e-02 -2.94230299e-03 0.0
-7.32672228e-03 -2.18093505e-03 0.0
-5.16190035e-03 -2.72846348e-03 0.0
-2.83849439e-03 -2.83849439e-03 0.0
-9.71732867e-04 -2.97987416e-03 0.0
9.71732867e-04 -2.97987416e-03 0.0
2.83849439e-03 -2.83849439e-03 0.0
5.16190035e-03 -2.72846348e-03 0.0
7.32672228e-03 -2.18093505e-03 0.0
1.07273695e-02 -2.94230299e-03 0.0
-1.07011277e-02 -9.54900673e-04 0.0
-7.53956997e-03 -9.56940999e-04 0.0
-5.21636917e-03 -1.07796549e-03 0.0
-2.97987416e-03 -9.71732867e-04 0.0
-1.05972355e-03 -1.05972355e-03 0.0
1.05972355e-03 -1.05972355e-03 0.0
2.97987416e-03 -9.71732867e-04 0.0
5.21636917e-03 -1.07796549e-03 0.0
7.53956997e-03 -9.56940999e-04 0.0
1.07011277e-02 -9.54900673e-04 0.0
-1.07011277e-02 9.54900673e-04 0.0
-7.53956997e-03 9.56940999e-04 0.0
-5.21636917e-03 1.07796549e-03 0.0
-2.97987416e-03 9.71732867e-04 0.0
-1.05972355e-03 1.05972355e-03 0.0
1.05972355e-03 1.05972355e-03 0.0
2.97987416e-03 9.71732867e-04 0.0
5.21636917e-03 1.07796549e-03 0.0
7.53956997e-03 9.56940999e-04 0.0
1.07011277e-02 9.54900673e-04 0.0
-1.07273695e-02 2.94230299e-03 0.0
-7.32672228e-03 2.18093505e-03 0.0
-5.16190035e-03 2.72846348e-03 0.0
-2.83849439e-03 2.83849439e-03 0.0
-9.71732867e-04 2.97987416e-03 0.0
9.71732867e-04 2.97987416e-03 0.0
2.83849439e-03 2.83849439e-03 0.0
5.16190035e-03 2.72846348e-03 0.0
7.32672228e-03 2.18093505e-03 0.0
1.07273695e-02 2.94230299e-03 0.0
-1.14240241e-02 5.10695879e-03 0.0
-7.41887974e-03 3.92197135e-03 0.0
-4.62696623e-03 4.62696623e-03 0.0
-2.72846348e-03 5.16190035e-03 0.0
-1.07796549e-03 5.21636917e-03 0.0
1.07796549e-03 5.21636917e-03 0.0
2.72846348e-03 5.16190035e-03 0.0
4.62696623e-03 4.62696623e-03 0.0
7.41887974e-03 3.92197135e-03 0.0
1.14240241e-02 5.10695879e-03 0.0
-1.15926740e-02 7.82281177e-03 0.0
-7.30309464e-03 7.30309464e-03 0.0
-3.92197135e-03 7.41887974e-03 0.0
-2.18093505e-03 7.32672228e-03 0.0
-9.56940999e-04 7.53956997e-03 0.0
9.56940999e-04 7.53956997e-03 0.0
2.18093505e-03 7.32672228e-03 0.0
3.92197135e-03 7.41887974e-03 0.0
7.30309464e-03 7.30309464e-03 0.0
1.15926740e-02 7.82281177e-03 0.0
-1.13804756e-02 1.13804756e-02 0.0
-7.82281177e-03 1.15926740e-02 0.0
-5.10695879e-03 1.14240241e-02 0.0
-2.94230299e-03 1.07273695e-02 0.0
-9.54900673e-04 1.07011277e-02 0.0
9.54900673e-04 1.07011277e-02 0.0
2.94230299e-03 1.07273695e-02 0.0
5.10695879e-03 1.14240241e-02 0.0
7.82281177e-03 1.15926740e-02 0.0
1.13804756e-02 1.13804756e-02 0.0
CELLS 100 200
1 0
1 1
1 2
1 3
1 4
1 5
1 6
1 7
1 8
1 9
1 10
1 11
1 12
1 13
1 14
1 15
1 16
1 17
1 18
1 19
1 20
1 21
1 22
1 23
1 24
1 25
1 26
1 27
1 28
1 29
1 30
1 31
1 32
1 33
1 34
1 35
1 36
1 37
1 38
1 39
1 40
1 41
1 42
1 43
1 44
1 45
1 46
1 47
1 48
1 49
1 50
1 51
1 52
1 53
1 54
1 55
1 56
1 57
1 58
1 59
1 60
1 61
1 62
1 63
1 64
1 65
1 66
1 67
1 68
1 69
1 70
1 71
1 72
1 73
1 74
1 75
1 76
1 77
1 78
1 79
1 80
1 81
1 82
1 83
1 84
1 85
1 86
1 87
1 88
1 89
1 90
1 91
1 92
1 93
1 94
1 95
1 96
1 97
1 98
1 99
CELL_TYPES 100
1
1
1
1
1
1
1
1
1
1
1
1
1
1
1
1
1
1
1
1
1
1
1
1
1
1
1
1
1
1
1
1
1
1
1
1
1
1
1
1
1
1
1
1
1
1
1
1
1
1
1
1
1
1
1
1
1
1
1
1
1
1
1
1
1
1
1
1
1
1
1
1
1
1
1
1
1
1
1
1
1
1
1
1
1
1
1
1
1
1
1
1
1
1
1
1
1
1
1
1
POINT_DATA 100
SCALARS pressure double 1
LOOKUP_TABLE default
0.00000000e+00
0.00000000e+00
0.00000000e+00
0.00000000e+00
0.00000000e+00
0.00000000e+00
0.00000000e+00
0.00000000e+00
0.00000000e+00
0.00000000e+00
0.00000000e+00
0.00000000e+00
0.00000000e+00
-4.53665769e+02
-2.53448986e+02
-2.53448986e+02
-4.53665769e+02
0.00000000e+00
0.00000000e+00
0.00000000e+00
0.00000000e+00
0.00000000e+00
0.00000000e+00
0.00000000e+00
7.07869226e+01
7.07869226e+01
0.00000000e+00
0.00000000e+00
0.00000000e+00
0.00000000e+00
0.00000000e+00
-4.53665769e+02
0.00000000e+00
-2.37078067e+02
-1.63013786e+02
-1.63013786e+02
-2.37078067e+02
0.00000000e+00
-4.53665769e+02
0.00000000e+00
0.00000000e+00
-2.53448986e+02
7.07869226e+01
-1.63013786e+02
-2.05008379e+02
-2.05008379e+02
-1.63013786e+02
7.07869226e+01
-2.53448986e+02
0.00000000e+00
0.00000000e+00
-2.53448986e+02
7.07869226e+01
-1.63013786e+02
-2.05008379e+02
-2.05008379e+02
-1.63013786e+02
7.07869226e+01
-2.53448986e+02
0.00000000e+00
0.00000000e+00
-4.53665769e+02
0.00000000e+00
-2.37078067e+02
-1.63013786e+02
-1.63013786e+02
-2.37078067e+02
0.00000000e+00
-4.53665769e+02
0.00000000e+00
0.00000000e+00
0.00000000e+00
0.00000000e+00
0.00000000e+00
7.07869226e+01
7.07869226e+01
0.00000000e+00
0.00000000e+00
0.00000000e+00
0.00000000e+00
0.00000000e+00
0.00000000e+00
0.00000000e+00
-4.53665769e+02
-2.53448986e+02
-2.53448986e+02
-4.53665769e+02
0.00000000e+00
0.00000000e+00
0.00000000e+00
0.00000000e+00
0.00000000e+00
0.00000000e+00
0.00000000e+00
0.00000000e+00
0.00000000e+00
0.00000000e+00
0.00000000e+00
0.00000000e+00
0.00000000e+00
SCALARS type int 1
LOOKUP_TABLE default
0
0
0
0
0
0
0
0
0
0
0
0
0
0
0
0
0
0
0
0
0
0
0
0
0
0
0
0
0
0
0
0
0
0
0
0
0
0
0
0
0
0
0
0
0
0
0
0
0
0
0
0
0
0
0
0
0
0
0
0
0
0
0
0
0
0
0
0
0
0
0
0
0
0
0
0
0
0
0
0
0
0
0
0
0
0
0
0
0
0
0
0
0
0
0
0
0
0
0
0
VECTORS velocity double
-6.32881453e-01 -6.32881453e-01 0.0
-3.89380944e-01 -8.65481654e-01 0.0
-1.75537521e-01 -9.02951477e-01 0.0
-9.99552434e-02 -6.37585127e-01 0.0
1.25541687e-03 -6.61507922e-01 0.0
-1.25541687e-03 -6.61507922e-01 0.0
9.99552434e-02 -6.37585127e-01 0.0
1.75537521e-01 -9.02951477e-01 0.0
3.89380944e-01 -8.65481654e-01 0.0
6.32881453e-01 -6.32881453e-01 0.0
-8.65481654e-01 -3.89380944e-01 0.0
-2.81848645e-01 -2.81848645e-01 0.0
2.14406554e-01 -3.00251687e-01 0.0
3.14970488e-01 -2.09564069e-01 0.0
1.70006457e-01 -3.07172890e-01 0.0
-1.70006457e-01 -3.07172890e-01 0.0
-3.14970488e-01 -2.09564069e-01 0.0
-2.14406554e-01 -3.00251687e-01 0.0
2.81848645e-01 -2.81848645e-01 0.0
8.65481654e-01 -3.89380944e-01 0.0
-9.02951477e-01 -1.75537521e-01 0.0
-3.00251687e-01 2.14406554e-01 0.0
1.24318168e-01 1.24318168e-01 0.0
1.05247756e-01 -1.35669710e-02 0.0
7.27678801e-03 -2.58693539e-02 0.0
-7.27678801e-03 -2.58693539e-02 0.0
-1.05247756e-01 -1.35669710e-02 0.0
-1.24318168e-01 1.24318168e-01 0.0
3.00251687e-01 2.14406554e-01 0.0
9.02951477e-01 -1.75537521e-01 0.0
-6.37585127e-01 -9.99552434e-02 0.0
-2.09564069e-01 3.14970488e-01 0.0
-1.35669710e-02 1.05247756e-01 0.0
-4.33950568e-02 -4.33950568e-02 0.0
1.33561048e-01 -4.15131390e-02 0.0
-1.33561048e-01 -4.15131390e-02 0.0
4.33950568e-02 -4.33950568e-02 0.0
1.35669710e-02 1.05247756e-01 0.0
2.09564069e-01 3.14970488e-01 0.0
6.37585127e-01 -9.99552434e-02 0.0
-6.61507922e-01 1.25541687e-03 0.0
-3.07172890e-01 1.70006457e-01 0.0
-2.58693539e-02 7.27678801e-03 0.0
-4.15131390e-02 1.33561048e-01 0.0
1.33533741e-01 1.33533741e-01 0.0
-1.33533741e-01 1.33533741e-01 0.0
4.15131390e-02 1.33561048e-01 0.0
2.58693539e-02 7.27678801e-03 0.0
3.07172890e-01 1.70006457e-01 0.0
6.61507922e-01 1.25541687e-03 0.0
-6.61507922e-01 -1.25541687e-03 0.0
-3.07172890e-01 -1.70006457e-01 0.0
-2.58693539e-02 -7.27678801e-03 0.0
-4.15131390e-02 -1.33561048e-01 0.0
1.33533741e-01 -1.33533741e-01 0.0
-1.33533741e-01 -1.33533741e-01 0.0
4.15131390e-02 -1.33561048e-01 0.0
2.58693539e-02 -7.27678801e-03 0.0
3.07172890e-01 -1.70006457e-01 0.0
6.61507922e-01 -1.25541687e-03 0.0
-6.37585127e-01 9.99552434e-02 0.0
-2.09564069e-01 -3.14970488e-01 0.0
-1.35669710e-02 -1.05247756e-01 0.0
-4.33950568e-02 4.33950568e-02 0.0
1.33561048e-01 4.15131390e-02 0.0
-1.33561048e-01 4.15131390e-02 0.0
4.33950568e-02 4.33950568e-02 0.0
1.35669710e-02 -1.05247756e-01 0.0
2.09564069e-01 -3.14970488e-01 0.0
6.37585127e-01 9.99552434e-02 0.0
-9.02951477e-01 1.75537521e-01 0.0
-3.00251687e-01 -2.14406554e-01 0.0
1.24318168e-01 -1.24318168e-01 0.0
1.05247756e-01 1.35669710e-02 0.0
7.27678801e-03 2.58693539e-02 0.0
-7.27678801e-03 2.58693539e-02 0.0
-1.05247756e-01 1.35669710e-02 0.0
-1.24318168e-01 -1.24318168e-01 0.0
3.00251687e-01 -2.14406554e-01 0.0
9.02951477e-01 1.75537521e-01 0.0
-8.65481654e-01 3.89380944e-01 0.0
-2.81848645e-01 2.81848645e-01 0.0
2.14406554e-01 3.00251687e-01 0.0
3.14970488e-01 2.09564069e-01 0.0
1.70006457e-01 3.07172890e-01 0.0
-1.70006457e-01 3.07172890e-01 0.0
-3.14970488e-01 2.09564069e-01 0.0
-2.14406554e-01 3.00251687e-01 0.0
2.81848645e-01 2.81848645e-01 0.0
8.65481654e-01 3.89380944e-01 0.0
-6.32881453e-01 6.32881453e-01 0.0
-3.89380944e-01 8.65481654e-01 0.0
-1.75537521e-01 9.02951477e-01 0.0
-9.99552434e-02 6.37585127e-01 0.0
1.25541687e-03 6.61507922e-01 0.0
-1.25541687e-03 6.61507922e-01 0.0
9.99552434e-02 6.37585127e-01 0.0
1.75537521e-01 9.02951477e-01 0.0
3.89380944e-01 8.65481654e-01 0.0
6.32881453e-01 6.32881453e-01 0.0
