# vtk DataFile Version 3.0
MPS Simulation Step 1900
ASCII
DATASET UNSTRUCTURED_GRID
POINTS 24 double
-5.63789085e-02 -5.89410833e-02 0.0
5.63789068e-02 -5.89410822e-02 0.0
-4.31166199e-02 -5.92966896e-02 0.0
4.31166346e-02 -5.92966957e-02 0.0
-5.89410833e-02 -5.63789085e-02 0.0
-5.92966896e-02 -4.31166199e-02 0.0
-4.59720442e-02 -4.59720442e-02 0.0
4.59915936e-02 -4.59915936e-02 0.0
5.92966957e-02 -4.31166346e-02 0.0
5.89410822e-02 -5.63789068e-02 0.0
-1.27508221e-02 -1.27508221e-02 0.0
7.97441434e-03 -7.97441434e-03 0.0
-7.97441434e-03 7.97441434e-03 0.0
1.27508221e-02 1.27508221e-02 0.0
-5.89410822e-02 5.63789068e-02 0.0
-5.92966957e-02 4.31166346e-02 0.0
-4.59915936e-02 4.59915936e-02 0.0
4.59720442e-02 4.59720442e-02 0.0
5.92966896e-02 4.31166199e-02 0.0
5.89410833e-02 5.63789085e-02 0.0
-4.31166346e-02 5.92966957e-02 0.0
4.31166199e-02 5.92966896e-02 0.0
-5.63789068e-02 5.89410822e-02 0.0
5.63789085e-02 5.89410833e-02 0.0
CELLS 24 48
1 0
1 1
1 2
1 3
1 4
1 5
1 6
1 7
1 8
1 9
1 10
1 11
1 12
1 13
1 14
1 15
1 16
1 17
1 18
1 19
1 20
1 21
1 22
1 23
CELL_TYPES 24
1
1
1
1
1
1
1
1
1
1
1
1
1
1
1
1
1
1
1
1
1
1
1
1
POINT_DATA 24
SCALARS pressure double 1
LOOKUP_TABLE default
0.00000000e+00
0.00000000e+00
0.00000000e+00
0.00000000e+00
0.00000000e+00
0.00000000e+00
0.00000000e+00
0.00000000e+00
0.00000000e+00
0.00000000e+00
0.00000000e+00
0.00000000e+00
0.00000000e+00
0.00000000e+00
0.00000000e+00
0.00000000e+00
0.00000000e+00
0.00000000e+00
0.00000000e+00
0.00000000e+00
0.00000000e+00
0.00000000e+00
0.00000000e+00
0.00000000e+00
SCALARS type int 1
LOOKUP_TABLE default
0
0
0
0
0
0
0
0
0
0
0
0
0
0
0
0
0
0
0
0
0
0
0
0
VECTORS velocity double
-2.85930288e-01 -3.02248871e-01 0.0
2.85930283e-01 -3.02248851e-01 0.0
-2.25957758e-01 -2.96864034e-01 0.0
2.25957865e-01 -2.96864061e-01 0.0
-3.02248871e-01 -2.85930288e-01 0.0
-2.96864034e-01 -2.25957758e-01 0.0
-2.45104052e-01 -2.45104052e-01 0.0
2.45221383e-01 -2.45221383e-01 0.0
2.96864061e-01 -2.25957865e-01 0.0
3.02248851e-01 -2.85930283e-01 0.0
-7.30889245e-02 -7.30889245e-02 0.0
4.44438534e-02 -4.44438534e-02 0.0
-4.44438534e-02 4.44438534e-02 0.0
7.30889245e-02 7.30889245e-02 0.0
-3.02248851e-01 2.85930283e-01 0.0
-2.96864061e-01 2.25957865e-01 0.0
-2.45221383e-01 2.45221383e-01 0.0
2.45104052e-01 2.45104052e-01 0.0
2.96864034e-01 2.25957758e-01 0.0
3.02248871e-01 2.85930288e-01 0.0
-2.25957865e-01 2.96864061e-01 0.0
2.25957758e-01 2.96864034e-01 0.0
-2.85930283e-01 3.02248851e-01 0.0
2.85930288e-01 3.02248871e-01 0.0
