# vtk DataFile Version 3.0
MPS Simulation Step 900
ASCII
DATASET UNSTRUCTURED_GRID
POINTS 60 double
-6.51741171e-02 -6.51741171e-02 0.0
6.51741171e-02 -6.51741171e-02 0.0
-4.12499277e-02 -4.12499277e-02 0.0
-4.03826159e-02 -5.71469644e-02 0.0
-2.77932768e-02 -2.87087932e-02 0.0
2.77932757e-02 -2.87087942e-02 0.0
4.03826159e-02 -5.71469644e-02 0.0
4.12499277e-02 -4.12499277e-02 0.0
-5.71469644e-02 -4.03826159e-02 0.0
-3.93728317e-02 -3.93728317e-02 0.0
-2.05209514e-02 -2.96105251e-02 0.0
-2.17726796e-02 -3.50083094e-02 0.0
2.17726805e-02 -3.50083095e-02 0.0
2.05209554e-02 -2.96105284e-02 0.0
3.93728317e-02 -3.93728317e-02 0.0
5.71469644e-02 -4.03826159e-02 0.0
-2.87087932e-02 -2.77932768e-02 0.0
-2.96105251e-02 -2.05209514e-02 0.0
-2.14616391e-02 -2.14616391e-02 0.0
-4.57837201e-03 -2.98379292e-02 0.0
4.61258121e-03 -3.01234571e-02 0.0
2.14694553e-02 -2.14694553e-02 0.0
2.96105284e-02 -2.05209554e-02 0.0
2.87087942e-02 -2.77932757e-02 0.0
-3.50083094e-02 -2.17726796e-02 0.0
-2.98379292e-02 -4.57837201e-03 0.0
-5.44192970e-03 -5.44192970e-03 0.0
3.53002901e-03 -3.53002901e-03 0.0
3.01234571e-02 -4.61258121e-03 0.0
3.50083095e-02 -2.17726805e-02 0.0
-3.50083095e-02 2.17726805e-02 0.0
-3.01234571e-02 4.61258121e-03 0.0
-3.53002901e-03 3.53002901e-03 0.0
5.44192970e-03 5.44192970e-03 0.0
2.98379292e-02 4.57837201e-03 0.0
3.50083094e-02 2.17726796e-02 0.0
-2.87087942e-02 2.77932757e-02 0.0
-2.96105284e-02 2.05209554e-02 0.0
-2.14694553e-02 2.14694553e-02 0.0
-4.61258121e-03 3.01234571e-02 0.0
4.57837201e-03 2.98379292e-02 0.0
2.14616391e-02 2.14616391e-02 0.0
2.96105251e-02 2.05209514e-02 0.0
2.87087932e-02 2.77932768e-02 0.0
-5.71469644e-02 4.03826159e-02 0.0
-3.93728317e-02 3.93728317e-02 0.0
-2.05209554e-02 2.96105284e-02 0.0
-2.17726805e-02 3.50083095e-02 0.0
2.17726796e-02 3.50083094e-02 0.0
2.05209514e-02 2.96105251e-02 0.0
3.93728317e-02 3.93728317e-02 0.0
5.71469644e-02 4.03826159e-02 0.0
-4.12499277e-02 4.12499277e-02 0.0
-4.03826159e-02 5.71469644e-02 0.0
-2.77932757e-02 2.87087942e-02 0.0
2.77932768e-02 2.87087932e-02 0.0
4.03826159e-02 5.71469644e-02 0.0
4.12499277e-02 4.12499277e-02 0.0
-6.51741171e-02 6.51741171e-02 0.0
6.51741171e-02 6.51741171e-02 0.0
CELLS 60 120
1 0
1 1
1 2
1 3
1 4
1 5
1 6
1 7
1 8
1 9
1 10
1 11
1 12
1 13
1 14
1 15
1 16
1 17
1 18
1 19
1 20
1 21
1 22
1 23
1 24
1 25
1 26
1 27
1 28
1 29
1 30
1 31
1 32
1 33
1 34
1 35
1 36
1 37
1 38
1 39
1 40
1 41
1 42
1 43
1 44
1 45
1 46
1 47
1 48
1 49
1 50
1 51
1 52
1 53
1 54
1 55
1 56
1 57
1 58
1 59
CELL_TYPES 60
1
1
1
1
1
1
1
1
1
1
1
1
1
1
1
1
1
1
1
1
1
1
1
1
1
1
1
1
1
1
1
1
1
1
1
1
1
1
1
1
1
1
1
1
1
1
1
1
1
1
1
1
1
1
1
1
1
1
1
1
POINT_DATA 60
SCALARS pressure double 1
LOOKUP_TABLE default
0.00000000e+00
0.00000000e+00
0.00000000e+00
0.00000000e+00
0.00000000e+00
0.00000000e+00
0.00000000e+00
0.00000000e+00
0.00000000e+00
0.00000000e+00
0.00000000e+00
0.00000000e+00
0.00000000e+00
0.00000000e+00
0.00000000e+00
0.00000000e+00
0.00000000e+00
0.00000000e+00
0.00000000e+00
0.00000000e+00
0.00000000e+00
0.00000000e+00
0.00000000e+00
0.00000000e+00
0.00000000e+00
0.00000000e+00
0.00000000e+00
0.00000000e+00
0.00000000e+00
0.00000000e+00
0.00000000e+00
0.00000000e+00
0.00000000e+00
0.00000000e+00
0.00000000e+00
0.00000000e+00
0.00000000e+00
0.00000000e+00
0.00000000e+00
0.00000000e+00
0.00000000e+00
0.00000000e+00
0.00000000e+00
0.00000000e+00
0.00000000e+00
0.00000000e+00
0.00000000e+00
0.00000000e+00
0.00000000e+00
0.00000000e+00
0.00000000e+00
0.00000000e+00
0.00000000e+00
0.00000000e+00
0.00000000e+00
0.00000000e+00
0.00000000e+00
0.00000000e+00
0.00000000e+00
0.00000000e+00
SCALARS type int 1
LOOKUP_TABLE default
0
0
0
0
0
0
0
0
0
0
0
0
0
0
0
0
0
0
0
0
0
0
0
0
0
0
0
0
0
0
0
0
0
0
0
0
0
0
0
0
0
0
0
0
0
0
0
0
0
0
0
0
0
0
0
0
0
0
0
0
VECTORS velocity double
-6.32866138e-01 -6.32866138e-01 0.0
6.32866138e-01 -6.32866138e-01 0.0
-4.23799811e-01 -4.23799811e-01 0.0
-4.43288835e-01 -5.91269900e-01 0.0
-2.85736965e-01 -3.02443760e-01 0.0
2.85736960e-01 -3.02443739e-01 0.0
4.43288835e-01 -5.91269900e-01 0.0
4.23799811e-01 -4.23799811e-01 0.0
-5.91269900e-01 -4.43288835e-01 0.0
-4.02447131e-01 -4.02447131e-01 0.0
-2.25947405e-01 -2.96843049e-01 0.0
-2.52649244e-01 -3.59245031e-01 0.0
2.52649259e-01 -3.59245031e-01 0.0
2.25947511e-01 -2.96843077e-01 0.0
4.02447131e-01 -4.02447131e-01 0.0
5.91269900e-01 -4.43288835e-01 0.0
-3.02443760e-01 -2.85736965e-01 0.0
-2.96843049e-01 -2.25947405e-01 0.0
-2.45104052e-01 -2.45104052e-01 0.0
-6.74764540e-02 -3.95976390e-01 0.0
6.79898647e-02 -4.00643544e-01 0.0
2.45221383e-01 -2.45221383e-01 0.0
2.96843077e-01 -2.25947511e-01 0.0
3.02443739e-01 -2.85736960e-01 0.0
-3.59245031e-01 -2.52649244e-01 0.0
-3.95976390e-01 -6.74764540e-02 0.0
-7.30889245e-02 -7.30889245e-02 0.0
4.44438534e-02 -4.44438534e-02 0.0
4.00643544e-01 -6.79898647e-02 0.0
3.59245031e-01 -2.52649259e-01 0.0
-3.59245031e-01 2.52649259e-01 0.0
-4.00643544e-01 6.79898647e-02 0.0
-4.44438534e-02 4.44438534e-02 0.0
7.30889245e-02 7.30889245e-02 0.0
3.95976390e-01 6.74764540e-02 0.0
3.59245031e-01 2.52649244e-01 0.0
-3.02443739e-01 2.85736960e-01 0.0
-2.96843077e-01 2.25947511e-01 0.0
-2.45221383e-01 2.45221383e-01 0.0
-6.79898647e-02 4.00643544e-01 0.0
6.74764540e-02 3.95976390e-01 0.0
2.45104052e-01 2.45104052e-01 0.0
2.96843049e-01 2.25947405e-01 0.0
3.02443760e-01 2.85736965e-01 0.0
-5.91269900e-01 4.43288835e-01 0.0
-4.02447131e-01 4.02447131e-01 0.0
-2.25947511e-01 2.96843077e-01 0.0
-2.52649259e-01 3.59245031e-01 0.0
2.52649244e-01 3.59245031e-01 0.0
2.25947405e-01 2.96843049e-01 0.0
4.02447131e-01 4.02447131e-01 0.0
5.91269900e-01 4.43288835e-01 0.0
-4.23799811e-01 4.23799811e-01 0.0
-4.43288835e-01 5.91269900e-01 0.0
-2.85736960e-01 3.02443739e-01 0.0
2.85736965e-01 3.02443760e-01 0.0
4.43288835e-01 5.91269900e-01 0.0
4.23799811e-01 4.23799811e-01 0.0
-6.32866138e-01 6.32866138e-01 0.0
6.32866138e-01 6.32866138e-01 0.0
