# vtk DataFile Version 3.0
MPS Simulation Step 500
ASCII
DATASET UNSTRUCTURED_GRID
POINTS 100 double
-3.98594715e-02 -3.98594715e-02 0.0
-2.56919586e-02 -5.08156779e-02 0.0
-1.46945239e-02 -5.43183522e-02 0.0
-1.31974297e-02 -4.37871186e-02 0.0
-4.78928766e-03 -4.89330593e-02 0.0
4.78928766e-03 -4.89330593e-02 0.0
1.31974297e-02 -4.37871186e-02 0.0
1.46945239e-02 -5.43183522e-02 0.0
2.56919586e-02 -5.08156779e-02 0.0
3.98594715e-02 -3.98594715e-02 0.0
-5.08156779e-02 -2.56919586e-02 0.0
-2.42958475e-02 -2.42958475e-02 0.0
-2.26510625e-02 -3.34961684e-02 0.0
-1.49565654e-02 -1.80174765e-02 0.0
-1.61868445e-02 -4.23853419e-02 0.0
1.61868445e-02 -4.23853419e-02 0.0
1.49565655e-02 -1.80174769e-02 0.0
2.26510625e-02 -3.34961684e-02 0.0
2.42958475e-02 -2.42958475e-02 0.0
5.08156779e-02 -2.56919586e-02 0.0
-5.43183522e-02 -1.46945239e-02 0.0
-3.34961684e-02 -2.26510625e-02 0.0
-2.32770342e-02 -2.32770342e-02 0.0
-1.14850336e-02 -1.77381093e-02 0.0
-1.16662903e-02 -2.06363299e-02 0.0
1.16662907e-02 -2.06363300e-02 0.0
1.14850341e-02 -1.77381106e-02 0.0
2.32770342e-02 -2.32770342e-02 0.0
3.34961684e-02 -2.26510625e-02 0.0
5.43183522e-02 -1.46945239e-02 0.0
-4.37871186e-02 -1.31974297e-02 0.0
-1.80174765e-02 -1.49565654e-02 0.0
-1.77381093e-02 -1.14850336e-02 0.0
-1.16575892e-02 -1.16575892e-02 0.0
-1.87855882e-03 -1.39988996e-02 0.0
1.89223159e-03 -1.40976893e-02 0.0
1.16607128e-02 -1.16607128e-02 0.0
1.77381106e-02 -1.14850341e-02 0.0
1.80174769e-02 -1.49565655e-02 0.0
4.37871186e-02 -1.31974297e-02 0.0
-4.89330593e-02 -4.78928766e-03 0.0
-4.23853419e-02 -1.61868445e-02 0.0
-2.06363299e-02 -1.16662903e-02 0.0
-1.39988996e-02 -1.87855882e-03 0.0
-2.51774002e-03 -2.51774002e-03 0.0
1.75169901e-03 -1.75169901e-03 0.0
1.40976893e-02 -1.89223159e-03 0.0
2.06363300e-02 -1.16662907e-02 0.0
4.23853419e-02 -1.61868445e-02 0.0
4.89330593e-02 -4.78928766e-03 0.0
-4.89330593e-02 4.78928766e-03 0.0
-4.23853419e-02 1.61868445e-02 0.0
-2.06363300e-02 1.16662907e-02 0.0
-1.40976893e-02 1.89223159e-03 0.0
-1.75169901e-03 1.75169901e-03 0.0
2.51774002e-03 2.51774002e-03 0.0
1.39988996e-02 1.87855882e-03 0.0
2.06363299e-02 1.16662903e-02 0.0
4.23853419e-02 1.61868445e-02 0.0
4.89330593e-02 4.78928766e-03 0.0
-4.37871186e-02 1.31974297e-02 0.0
-1.80174769e-02 1.49565655e-02 0.0
-1.77381106e-02 1.14850341e-02 0.0
-1.16607128e-02 1.16607128e-02 0.0
-1.89223159e-03 1.40976893e-02 0.0
1.87855882e-03 1.39988996e-02 0.0
1.16575892e-02 1.16575892e-02 0.0
1.77381093e-02 1.14850336e-02 0.0
1.80174765e-02 1.49565654e-02 0.0
4.37871186e-02 1.31974297e-02 0.0
-5.43183522e-02 1.46945239e-02 0.0
-3.34961684e-02 2.26510625e-02 0.0
-2.32770342e-02 2.32770342e-02 0.0
-1.14850341e-02 1.77381106e-02 0.0
-1.16662907e-02 2.06363300e-02 0.0
1.16662903e-02 2.06363299e-02 0.0
1.14850336e-02 1.77381093e-02 0.0
2.32770342e-02 2.32770342e-02 0.0
3.34961684e-02 2.26510625e-02 0.0
5.43183522e-02 1.46945239e-02 0.0
-5.08156779e-02 2.56919586e-02 0.0
-2.42958475e-02 2.42958475e-02 0.0
-2.26510625e-02 3.34961684e-02 0.0
-1.49565655e-02 1.80174769e-02 0.0
-1.61868445e-02 4.23853419e-02 0.0
1.61868445e-02 4.23853419e-02 0.0
1.49565654e-02 1.80174765e-02 0.0
2.26510625e-02 3.34961684e-02 0.0
2.42958475e-02 2.42958475e-02 0.0
5.08156779e-02 2.56919586e-02 0.0
-3.98594715e-02 3.98594715e-02 0.0
-2.56919586e-02 5.08156779e-02 0.0
-1.46945239e-02 5.43183522e-02 0.0
-1.31974297e-02 4.37871186e-02 0.0
-4.78928766e-03 4.89330593e-02 0.0
4.78928766e-03 4.89330593e-02 0.0
1.31974297e-02 4.37871186e-02 0.0
1.46945239e-02 5.43183522e-02 0.0
2.56919586e-02 5.08156779e-02 0.0
3.98594715e-02 3.98594715e-02 0.0
CELLS 100 200
1 0
1 1
1 2
1 3
1 4
1 5
1 6
1 7
1 8
1 9
1 10
1 11
1 12
1 13
1 14
1 15
1 16
1 17
1 18
1 19
1 20
1 21
1 22
1 23
1 24
1 25
1 26
1 27
1 28
1 29
1 30
1 31
1 32
1 33
1 34
1 35
1 36
1 37
1 38
1 39
1 40
1 41
1 42
1 43
1 44
1 45
1 46
1 47
1 48
1 49
1 50
1 51
1 52
1 53
1 54
1 55
1 56
1 57
1 58
1 59
1 60
1 61
1 62
1 63
1 64
1 65
1 66
1 67
1 68
1 69
1 70
1 71
1 72
1 73
1 74
1 75
1 76
1 77
1 78
1 79
1 80
1 81
1 82
1 83
1 84
1 85
1 86
1 87
1 88
1 89
1 90
1 91
1 92
1 93
1 94
1 95
1 96
1 97
1 98
1 99
CELL_TYPES 100
1
1
1
1
1
1
1
1
1
1
1
1
1
1
1
1
1
1
1
1
1
1
1
1
1
1
1
1
1
1
1
1
1
1
1
1
1
1
1
1
1
1
1
1
1
1
1
1
1
1
1
1
1
1
1
1
1
1
1
1
1
1
1
1
1
1
1
1
1
1
1
1
1
1
1
1
1
1
1
1
1
1
1
1
1
1
1
1
1
1
1
1
1
1
1
1
1
1
1
1
POINT_DATA 100
SCALARS pressure double 1
LOOKUP_TABLE default
0.00000000e+00
0.00000000e+00
0.00000000e+00
0.00000000e+00
0.00000000e+00
0.00000000e+00
0.00000000e+00
0.00000000e+00
0.00000000e+00
0.00000000e+00
0.00000000e+00
0.00000000e+00
0.00000000e+00
0.00000000e+00
0.00000000e+00
0.00000000e+00
0.00000000e+00
0.00000000e+00
0.00000000e+00
0.00000000e+00
0.00000000e+00
0.00000000e+00
0.00000000e+00
0.00000000e+00
0.00000000e+00
0.00000000e+00
0.00000000e+00
0.00000000e+00
0.00000000e+00
0.00000000e+00
0.00000000e+00
0.00000000e+00
0.00000000e+00
0.00000000e+00
0.00000000e+00
0.00000000e+00
0.00000000e+00
0.00000000e+00
0.00000000e+00
0.00000000e+00
0.00000000e+00
0.00000000e+00
0.00000000e+00
0.00000000e+00
0.00000000e+00
0.00000000e+00
0.00000000e+00
0.00000000e+00
0.00000000e+00
0.00000000e+00
0.00000000e+00
0.00000000e+00
0.00000000e+00
0.00000000e+00
0.00000000e+00
0.00000000e+00
0.00000000e+00
0.00000000e+00
0.00000000e+00
0.00000000e+00
0.00000000e+00
0.00000000e+00
0.00000000e+00
0.00000000e+00
0.00000000e+00
0.00000000e+00
0.00000000e+00
0.00000000e+00
0.00000000e+00
0.00000000e+00
0.00000000e+00
0.00000000e+00
0.00000000e+00
0.00000000e+00
0.00000000e+00
0.00000000e+00
0.00000000e+00
0.00000000e+00
0.00000000e+00
0.00000000e+00
0.00000000e+00
0.00000000e+00
0.00000000e+00
0.00000000e+00
0.00000000e+00
0.00000000e+00
0.00000000e+00
0.00000000e+00
0.00000000e+00
0.00000000e+00
0.00000000e+00
0.00000000e+00
0.00000000e+00
0.00000000e+00
0.00000000e+00
0.00000000e+00
0.00000000e+00
0.00000000e+00
0.00000000e+00
0.00000000e+00
SCALARS type int 1
LOOKUP_TABLE default
0
0
0
0
0
0
0
0
0
0
0
0
0
0
0
0
0
0
0
0
0
0
0
0
0
0
0
0
0
0
0
0
0
0
0
0
0
0
0
0
0
0
0
0
0
0
0
0
0
0
0
0
0
0
0
0
0
0
0
0
0
0
0
0
0
0
0
0
0
0
0
0
0
0
0
0
0
0
0
0
0
0
0
0
0
0
0
0
0
0
0
0
0
0
0
0
0
0
0
0
VECTORS velocity double
-6.32866138e-01 -6.32866138e-01 0.0
-3.97072407e-01 -8.71619524e-01 0.0
-2.13875645e-01 -9.54240674e-01 0.0
-2.30268496e-01 -7.76582444e-01 0.0
-8.82606736e-02 -8.55483546e-01 0.0
8.82606736e-02 -8.55483546e-01 0.0
2.30268496e-01 -7.76582444e-01 0.0
2.13875645e-01 -9.54240674e-01 0.0
3.97072407e-01 -8.71619524e-01 0.0
6.32866138e-01 -6.32866138e-01 0.0
-8.71619524e-01 -3.97072407e-01 0.0
-4.23921061e-01 -4.23921061e-01 0.0
-4.43288835e-01 -5.91269900e-01 0.0
-3.36553344e-01 -2.51690370e-01 0.0
-3.72302047e-01 -7.57518599e-01 0.0
3.72302047e-01 -7.57518599e-01 0.0
3.36553335e-01 -2.51690398e-01 0.0
4.43288835e-01 -5.91269900e-01 0.0
4.23921061e-01 -4.23921061e-01 0.0
8.71619524e-01 -3.97072407e-01 0.0
-9.54240674e-01 -2.13875645e-01 0.0
-5.91269900e-01 -4.43288835e-01 0.0
-4.02325880e-01 -4.02325880e-01 0.0
-2.25792291e-01 -2.96775205e-01 0.0
-2.52657889e-01 -3.59408409e-01 0.0
2.52657903e-01 -3.59408409e-01 0.0
2.25792344e-01 -2.96775271e-01 0.0
4.02325880e-01 -4.02325880e-01 0.0
5.91269900e-01 -4.43288835e-01 0.0
9.54240674e-01 -2.13875645e-01 0.0
-7.76582444e-01 -2.30268496e-01 0.0
-2.51690370e-01 -3.36553344e-01 0.0
-2.96775205e-01 -2.25792291e-01 0.0
-2.45092000e-01 -2.45092000e-01 0.0
-6.75600357e-02 -3.95973511e-01 0.0
6.80734464e-02 -4.00646424e-01 0.0
2.45209301e-01 -2.45209301e-01 0.0
2.96775271e-01 -2.25792344e-01 0.0
2.51690398e-01 -3.36553335e-01 0.0
7.76582444e-01 -2.30268496e-01 0.0
-8.55483546e-01 -8.82606736e-02 0.0
-7.57518599e-01 -3.72302047e-01 0.0
-3.59408409e-01 -2.52657889e-01 0.0
-3.95973511e-01 -6.75600357e-02 0.0
-7.31605893e-02 -7.31605893e-02 0.0
4.45124590e-02 -4.45124590e-02 0.0
4.00646424e-01 -6.80734464e-02 0.0
3.59408409e-01 -2.52657903e-01 0.0
7.57518599e-01 -3.72302047e-01 0.0
8.55483546e-01 -8.82606736e-02 0.0
-8.55483546e-01 8.82606736e-02 0.0
-7.57518599e-01 3.72302047e-01 0.0
-3.59408409e-01 2.52657903e-01 0.0
-4.00646424e-01 6.80734464e-02 0.0
-4.45124590e-02 4.45124590e-02 0.0
7.31605893e-02 7.31605893e-02 0.0
3.95973511e-01 6.75600357e-02 0.0
3.59408409e-01 2.52657889e-01 0.0
7.57518599e-01 3.72302047e-01 0.0
8.55483546e-01 8.82606736e-02 0.0
-7.76582444e-01 2.30268496e-01 0.0
-2.51690398e-01 3.36553335e-01 0.0
-2.96775271e-01 2.25792344e-01 0.0
-2.45209301e-01 2.45209301e-01 0.0
-6.80734464e-02 4.00646424e-01 0.0
6.75600357e-02 3.95973511e-01 0.0
2.45092000e-01 2.45092000e-01 0.0
2.96775205e-01 2.25792291e-01 0.0
2.51690370e-01 3.36553344e-01 0.0
7.76582444e-01 2.30268496e-01 0.0
-9.54240674e-01 2.13875645e-01 0.0
-5.91269900e-01 4.43288835e-01 0.0
-4.02325880e-01 4.02325880e-01 0.0
-2.25792344e-01 2.96775271e-01 0.0
-2.52657903e-01 3.59408409e-01 0.0
2.52657889e-01 3.59408409e-01 0.0
2.25792291e-01 2.96775205e-01 0.0
4.02325880e-01 4.02325880e-01 0.0
5.91269900e-01 4.43288835e-01 0.0
9.54240674e-01 2.13875645e-01 0.0
-8.71619524e-01 3.97072407e-01 0.0
-4.23921061e-01 4.23921061e-01 0.0
-4.43288835e-01 5.91269900e-01 0.0
-3.36553335e-01 2.51690398e-01 0.0
-3.72302047e-01 7.57518599e-01 0.0
3.72302047e-01 7.57518599e-01 0.0
3.36553344e-01 2.51690370e-01 0.0
4.43288835e-01 5.91269900e-01 0.0
4.23921061e-01 4.23921061e-01 0.0
8.71619524e-01 3.97072407e-01 0.0
-6.32866138e-01 6.32866138e-01 0.0
-3.97072407e-01 8.71619524e-01 0.0
-2.13875645e-01 9.54240674e-01 0.0
-2.30268496e-01 7.76582444e-01 0.0
-8.82606736e-02 8.55483546e-01 0.0
8.82606736e-02 8.55483546e-01 0.0
2.30268496e-01 7.76582444e-01 0.0
2.13875645e-01 9.54240674e-01 0.0
3.97072407e-01 8.71619524e-01 0.0
6.32866138e-01 6.32866138e-01 0.0
