# vtk DataFile Version 3.0
MPS Simulation Step 850
ASCII
DATASET UNSTRUCTURED_GRID
POINTS 60 double
-6.20097864e-02 -6.20097864e-02 0.0
6.20097864e-02 -6.20097864e-02 0.0
-3.91309034e-02 -3.91309034e-02 0.0
-3.81661718e-02 -5.41906149e-02 0.0
-2.63646397e-02 -2.71965227e-02 0.0
2.63646386e-02 -2.71965238e-02 0.0
3.81661718e-02 -5.41906149e-02 0.0
3.91309034e-02 -3.91309034e-02 0.0
-5.41906149e-02 -3.81661718e-02 0.0
-3.73606213e-02 -3.73606213e-02 0.0
-1.93912252e-02 -2.81263271e-02 0.0
-2.05094262e-02 -3.32120674e-02 0.0
2.05094270e-02 -3.32120674e-02 0.0
1.93912287e-02 -2.81263303e-02 0.0
3.73606213e-02 -3.73606213e-02 0.0
5.41906149e-02 -3.81661718e-02 0.0
-2.71965227e-02 -2.63646397e-02 0.0
-2.81263271e-02 -1.93912252e-02 0.0
-2.02361188e-02 -2.02361188e-02 0.0
-4.24098974e-03 -2.78580473e-02 0.0
4.27263189e-03 -2.81202393e-02 0.0
2.02433484e-02 -2.02433484e-02 0.0
2.81263303e-02 -1.93912287e-02 0.0
2.71965238e-02 -2.63646386e-02 0.0
-3.32120674e-02 -2.05094262e-02 0.0
-2.78580473e-02 -4.24098974e-03 0.0
-5.07648508e-03 -5.07648508e-03 0.0
3.30780974e-03 -3.30780974e-03 0.0
2.81202393e-02 -4.27263189e-03 0.0
3.32120674e-02 -2.05094270e-02 0.0
-3.32120674e-02 2.05094270e-02 0.0
-2.81202393e-02 4.27263189e-03 0.0
-3.30780974e-03 3.30780974e-03 0.0
5.07648508e-03 5.07648508e-03 0.0
2.78580473e-02 4.24098974e-03 0.0
3.32120674e-02 2.05094262e-02 0.0
-2.71965238e-02 2.63646386e-02 0.0
-2.81263303e-02 1.93912287e-02 0.0
-2.02433484e-02 2.02433484e-02 0.0
-4.27263189e-03 2.81202393e-02 0.0
4.24098974e-03 2.78580473e-02 0.0
2.02361188e-02 2.02361188e-02 0.0
2.81263271e-02 1.93912252e-02 0.0
2.71965227e-02 2.63646397e-02 0.0
-5.41906149e-02 3.81661718e-02 0.0
-3.73606213e-02 3.73606213e-02 0.0
-1.93912287e-02 2.81263303e-02 0.0
-2.05094270e-02 3.32120674e-02 0.0
2.05094262e-02 3.32120674e-02 0.0
1.93912252e-02 2.81263271e-02 0.0
3.73606213e-02 3.73606213e-02 0.0
5.41906149e-02 3.81661718e-02 0.0
-3.91309034e-02 3.91309034e-02 0.0
-3.81661718e-02 5.41906149e-02 0.0
-2.63646386e-02 2.71965238e-02 0.0
2.63646397e-02 2.71965227e-02 0.0
3.81661718e-02 5.41906149e-02 0.0
3.91309034e-02 3.91309034e-02 0.0
-6.20097864e-02 6.20097864e-02 0.0
6.20097864e-02 6.20097864e-02 0.0
CELLS 60 120
1 0
1 1
1 2
1 3
1 4
1 5
1 6
1 7
1 8
1 9
1 10
1 11
1 12
1 13
1 14
1 15
1 16
1 17
1 18
1 19
1 20
1 21
1 22
1 23
1 24
1 25
1 26
1 27
1 28
1 29
1 30
1 31
1 32
1 33
1 34
1 35
1 36
1 37
1 38
1 39
1 40
1 41
1 42
1 43
1 44
1 45
1 46
1 47
1 48
1 49
1 50
1 51
1 52
1 53
1 54
1 55
1 56
1 57
1 58
1 59
CELL_TYPES 60
1
1
1
1
1
1
1
1
1
1
1
1
1
1
1
1
1
1
1
1
1
1
1
1
1
1
1
1
1
1
1
1
1
1
1
1
1
1
1
1
1
1
1
1
1
1
1
1
1
1
1
1
1
1
1
1
1
1
1
1
POINT_DATA 60
SCALARS pressure double 1
LOOKUP_TABLE default
0.00000000e+00
0.00000000e+00
0.00000000e+00
0.00000000e+00
0.00000000e+00
0.00000000e+00
0.00000000e+00
0.00000000e+00
0.00000000e+00
0.00000000e+00
0.00000000e+00
0.00000000e+00
0.00000000e+00
0.00000000e+00
0.00000000e+00
0.00000000e+00
0.00000000e+00
0.00000000e+00
0.00000000e+00
0.00000000e+00
0.00000000e+00
0.00000000e+00
0.00000000e+00
0.00000000e+00
0.00000000e+00
0.00000000e+00
0.00000000e+00
0.00000000e+00
0.00000000e+00
0.00000000e+00
0.00000000e+00
0.00000000e+00
0.00000000e+00
0.00000000e+00
0.00000000e+00
0.00000000e+00
0.00000000e+00
0.00000000e+00
0.00000000e+00
0.00000000e+00
0.00000000e+00
0.00000000e+00
0.00000000e+00
0.00000000e+00
0.00000000e+00
0.00000000e+00
0.00000000e+00
0.00000000e+00
0.00000000e+00
0.00000000e+00
0.00000000e+00
0.00000000e+00
0.00000000e+00
0.00000000e+00
0.00000000e+00
0.00000000e+00
0.00000000e+00
0.00000000e+00
0.00000000e+00
0.00000000e+00
SCALARS type int 1
LOOKUP_TABLE default
0
0
0
0
0
0
0
0
0
0
0
0
0
0
0
0
0
0
0
0
0
0
0
0
0
0
0
0
0
0
0
0
0
0
0
0
0
0
0
0
0
0
0
0
0
0
0
0
0
0
0
0
0
0
0
0
0
0
0
0
VECTORS velocity double
-6.32866138e-01 -6.32866138e-01 0.0
6.32866138e-01 -6.32866138e-01 0.0
-4.23810289e-01 -4.23810289e-01 0.0
-4.43288835e-01 -5.91269900e-01 0.0
-2.85717176e-01 -3.02465296e-01 0.0
2.85717171e-01 -3.02465275e-01 0.0
4.43288835e-01 -5.91269900e-01 0.0
4.23810289e-01 -4.23810289e-01 0.0
-5.91269900e-01 -4.43288835e-01 0.0
-4.02436653e-01 -4.02436653e-01 0.0
-2.25942754e-01 -2.96835785e-01 0.0
-2.52652294e-01 -3.59252159e-01 0.0
2.52652308e-01 -3.59252159e-01 0.0
2.25942859e-01 -2.96835815e-01 0.0
4.02436653e-01 -4.02436653e-01 0.0
5.91269900e-01 -4.43288835e-01 0.0
-3.02465296e-01 -2.85717176e-01 0.0
-2.96835785e-01 -2.25942754e-01 0.0
-2.45104044e-01 -2.45104044e-01 0.0
-6.74764540e-02 -3.95976390e-01 0.0
6.79898647e-02 -4.00643544e-01 0.0
2.45221374e-01 -2.45221374e-01 0.0
2.96835815e-01 -2.25942859e-01 0.0
3.02465275e-01 -2.85717171e-01 0.0
-3.59252159e-01 -2.52652294e-01 0.0
-3.95976390e-01 -6.74764540e-02 0.0
-7.30889245e-02 -7.30889245e-02 0.0
4.44438534e-02 -4.44438534e-02 0.0
4.00643544e-01 -6.79898647e-02 0.0
3.59252159e-01 -2.52652308e-01 0.0
-3.59252159e-01 2.52652308e-01 0.0
-4.00643544e-01 6.79898647e-02 0.0
-4.44438534e-02 4.44438534e-02 0.0
7.30889245e-02 7.30889245e-02 0.0
3.95976390e-01 6.74764540e-02 0.0
3.59252159e-01 2.52652294e-01 0.0
-3.02465275e-01 2.85717171e-01 0.0
-2.96835815e-01 2.25942859e-01 0.0
-2.45221374e-01 2.45221374e-01 0.0
-6.79898647e-02 4.00643544e-01 0.0
6.74764540e-02 3.95976390e-01 0.0
2.45104044e-01 2.45104044e-01 0.0
2.96835785e-01 2.25942754e-01 0.0
3.02465296e-01 2.85717176e-01 0.0
-5.91269900e-01 4.43288835e-01 0.0
-4.02436653e-01 4.02436653e-01 0.0
-2.25942859e-01 2.96835815e-01 0.0
-2.52652308e-01 3.59252159e-01 0.0
2.52652294e-01 3.59252159e-01 0.0
2.25942754e-01 2.96835785e-01 0.0
4.02436653e-01 4.02436653e-01 0.0
5.91269900e-01 4.43288835e-01 0.0
-4.23810289e-01 4.23810289e-01 0.0
-4.43288835e-01 5.91269900e-01 0.0
-2.85717171e-01 3.02465275e-01 0.0
2.85717176e-01 3.02465296e-01 0.0
4.43288835e-01 5.91269900e-01 0.0
4.23810289e-01 4.23810289e-01 0.0
-6.32866138e-01 6.32866138e-01 0.0
6.32866138e-01 6.32866138e-01 0.0
