# vtk DataFile Version 3.0
MPS Simulation Step 100
ASCII
DATASET UNSTRUCTURED_GRID
POINTS 100 double
-1.45448271e-02 -1.45448271e-02 0.0
-9.80857975e-03 -1.59510243e-02 0.0
-6.14003505e-03 -1.61471731e-02 0.0
-3.94307405e-03 -1.41740047e-02 0.0
-1.25927839e-03 -1.47128152e-02 0.0
1.25927839e-03 -1.47128152e-02 0.0
3.94307405e-03 -1.41740047e-02 0.0
6.14003505e-03 -1.61471731e-02 0.0
9.80857975e-03 -1.59510243e-02 0.0
1.45448271e-02 -1.45448271e-02 0.0
-1.59510243e-02 -9.80857975e-03 0.0
-9.02753800e-03 -9.02753800e-03 0.0
-4.91800928e-03 -9.84351871e-03 0.0
-2.43349030e-03 -8.42315416e-03 0.0
-1.33613079e-03 -1.06348774e-02 0.0
1.33613079e-03 -1.06348774e-02 0.0
2.43349030e-03 -8.42315416e-03 0.0
4.91800928e-03 -9.84351871e-03 0.0
9.02753800e-03 -9.02753800e-03 0.0
1.59510243e-02 -9.80857975e-03 0.0
-1.61471731e-02 -6.14003505e-03 0.0
-9.84351871e-03 -4.91800928e-03 0.0
-5.51706309e-03 -5.51706309e-03 0.0
-2.60258755e-03 -5.84538781e-03 0.0
-5.30087911e-04 -5.82681741e-03 0.0
5.30087911e-04 -5.82681741e-03 0.0
2.60258755e-03 -5.84538781e-03 0.0
5.51706309e-03 -5.51706309e-03 0.0
9.84351871e-03 -4.91800928e-03 0.0
1.61471731e-02 -6.14003505e-03 0.0
-1.41740047e-02 -3.94307405e-03 0.0
-8.42315416e-03 -2.43349030e-03 0.0
-5.84538781e-03 -2.60258755e-03 0.0
-3.05840162e-03 -3.05840162e-03 0.0
-9.50673641e-04 -3.40600522e-03 0.0
9.50673641e-04 -3.40600522e-03 0.0
3.05840162e-03 -3.05840162e-03 0.0
5.84538781e-03 -2.60258755e-03 0.0
8.42315416e-03 -2.43349030e-03 0.0
1.41740047e-02 -3.94307405e-03 0.0
-1.47128152e-02 -1.25927839e-03 0.0
-1.06348774e-02 -1.33613079e-03 0.0
-5.82681741e-03 -5.30087911e-04 0.0
-3.40600522e-03 -9.50673641e-04 0.0
-7.90077352e-04 -7.90077352e-04 0.0
7.90077352e-04 -7.90077352e-04 0.0
3.40600522e-03 -9.50673641e-04 0.0
5.82681741e-03 -5.30087911e-04 0.0
1.06348774e-02 -1.33613079e-03 0.0
1.47128152e-02 -1.25927839e-03 0.0
-1.47128152e-02 1.25927839e-03 0.0
-1.06348774e-02 1.33613079e-03 0.0
-5.82681741e-03 5.30087911e-04 0.0
-3.40600522e-03 9.50673641e-04 0.0
-7.90077352e-04 7.90077352e-04 0.0
7.90077352e-04 7.90077352e-04 0.0
3.40600522e-03 9.50673641e-04 0.0
5.82681741e-03 5.30087911e-04 0.0
1.06348774e-02 1.33613079e-03 0.0
1.47128152e-02 1.25927839e-03 0.0
-1.41740047e-02 3.94307405e-03 0.0
-8.42315416e-03 2.43349030e-03 0.0
-5.84538781e-03 2.60258755e-03 0.0
-3.05840162e-03 3.05840162e-03 0.0
-9.50673641e-04 3.40600522e-03 0.0
9.50673641e-04 3.40600522e-03 0.0
3.05840162e-03 3.05840162e-03 0.0
5.84538781e-03 2.60258755e-03 0.0
8.42315416e-03 2.43349030e-03 0.0
1.41740047e-02 3.94307405e-03 0.0
-1.61471731e-02 6.14003505e-03 0.0
-9.84351871e-03 4.91800928e-03 0.0
-5.51706309e-03 5.51706309e-03 0.0
-2.60258755e-03 5.84538781e-03 0.0
-5.30087911e-04 5.82681741e-03 0.0
5.30087911e-04 5.82681741e-03 0.0
2.60258755e-03 5.84538781e-03 0.0
5.51706309e-03 5.51706309e-03 0.0
9.84351871e-03 4.91800928e-03 0.0
1.61471731e-02 6.14003505e-03 0.0
-1.59510243e-02 9.80857975e-03 0.0
-9.02753800e-03 9.02753800e-03 0.0
-4.91800928e-03 9.84351871e-03 0.0
-2.43349030e-03 8.42315416e-03 0.0
-1.33613079e-03 1.06348774e-02 0.0
1.33613079e-03 1.06348774e-02 0.0
2.43349030e-03 8.42315416e-03 0.0
4.91800928e-03 9.84351871e-03 0.0
9.02753800e-03 9.02753800e-03 0.0
1.59510243e-02 9.80857975e-03 0.0
-1.45448271e-02 1.45448271e-02 0.0
-9.80857975e-03 1.59510243e-02 0.0
-6.14003505e-03 1.61471731e-02 0.0
-3.94307405e-03 1.41740047e-02 0.0
-1.25927839e-03 1.47128152e-02 0.0
1.25927839e-03 1.47128152e-02 0.0
3.94307405e-03 1.41740047e-02 0.0
6.14003505e-03 1.61471731e-02 0.0
9.80857975e-03 1.59510243e-02 0.0
1.45448271e-02 1.45448271e-02 0.0
CELLS 100 200
1 0
1 1
1 2
1 3
1 4
1 5
1 6
1 7
1 8
1 9
1 10
1 11
1 12
1 13
1 14
1 15
1 16
1 17
1 18
1 19
1 20
1 21
1 22
1 23
1 24
1 25
1 26
1 27
1 28
1 29
1 30
1 31
1 32
1 33
1 34
1 35
1 36
1 37
1 38
1 39
1 40
1 41
1 42
1 43
1 44
1 45
1 46
1 47
1 48
1 49
1 50
1 51
1 52
1 53
1 54
1 55
1 56
1 57
1 58
1 59
1 60
1 61
1 62
1 63
1 64
1 65
1 66
1 67
1 68
1 69
1 70
1 71
1 72
1 73
1 74
1 75
1 76
1 77
1 78
1 79
1 80
1 81
1 82
1 83
1 84
1 85
1 86
1 87
1 88
1 89
1 90
1 91
1 92
1 93
1 94
1 95
1 96
1 97
1 98
1 99
CELL_TYPES 100
1
1
1
1
1
1
1
1
1
1
1
1
1
1
1
1
1
1
1
1
1
1
1
1
1
1
1
1
1
1
1
1
1
1
1
1
1
1
1
1
1
1
1
1
1
1
1
1
1
1
1
1
1
1
1
1
1
1
1
1
1
1
1
1
1
1
1
1
1
1
1
1
1
1
1
1
1
1
1
1
1
1
1
1
1
1
1
1
1
1
1
1
1
1
1
1
1
1
1
1
POINT_DATA 100
SCALARS pressure double 1
LOOKUP_TABLE default
0.00000000e+00
0.00000000e+00
0.00000000e+00
0.00000000e+00
0.00000000e+00
0.00000000e+00
0.00000000e+00
0.00000000e+00
0.00000000e+00
0.00000000e+00
0.00000000e+00
0.00000000e+00
0.00000000e+00
0.00000000e+00
0.00000000e+00
0.00000000e+00
0.00000000e+00
0.00000000e+00
0.00000000e+00
0.00000000e+00
0.00000000e+00
0.00000000e+00
0.00000000e+00
0.00000000e+00
0.00000000e+00
0.00000000e+00
0.00000000e+00
0.00000000e+00
0.00000000e+00
0.00000000e+00
0.00000000e+00
0.00000000e+00
0.00000000e+00
0.00000000e+00
0.00000000e+00
0.00000000e+00
0.00000000e+00
0.00000000e+00
0.00000000e+00
0.00000000e+00
0.00000000e+00
0.00000000e+00
0.00000000e+00
0.00000000e+00
-5.82390795e+02
-5.82390795e+02
0.00000000e+00
0.00000000e+00
0.00000000e+00
0.00000000e+00
0.00000000e+00
0.00000000e+00
0.00000000e+00
0.00000000e+00
-5.82390795e+02
-5.82390795e+02
0.00000000e+00
0.00000000e+00
0.00000000e+00
0.00000000e+00
0.00000000e+00
0.00000000e+00
0.00000000e+00
0.00000000e+00
0.00000000e+00
0.00000000e+00
0.00000000e+00
0.00000000e+00
0.00000000e+00
0.00000000e+00
0.00000000e+00
0.00000000e+00
0.00000000e+00
0.00000000e+00
0.00000000e+00
0.00000000e+00
0.00000000e+00
0.00000000e+00
0.00000000e+00
0.00000000e+00
0.00000000e+00
0.00000000e+00
0.00000000e+00
0.00000000e+00
0.00000000e+00
0.00000000e+00
0.00000000e+00
0.00000000e+00
0.00000000e+00
0.00000000e+00
0.00000000e+00
0.00000000e+00
0.00000000e+00
0.00000000e+00
0.00000000e+00
0.00000000e+00
0.00000000e+00
0.00000000e+00
0.00000000e+00
0.00000000e+00
SCALARS type int 1
LOOKUP_TABLE default
0
0
0
0
0
0
0
0
0
0
0
0
0
0
0
0
0
0
0
0
0
0
0
0
0
0
0
0
0
0
0
0
0
0
0
0
0
0
0
0
0
0
0
0
0
0
0
0
0
0
0
0
0
0
0
0
0
0
0
0
0
0
0
0
0
0
0
0
0
0
0
0
0
0
0
0
0
0
0
0
0
0
0
0
0
0
0
0
0
0
0
0
0
0
0
0
0
0
0
0
VECTORS velocity double
-6.32865867e-01 -6.32865867e-01 0.0
-3.97137888e-01 -8.71624272e-01 0.0
-2.13791314e-01 -9.54489707e-01 0.0
-2.32692487e-01 -7.00748156e-01 0.0
-8.82198279e-02 -8.55632257e-01 0.0
8.82198279e-02 -8.55632257e-01 0.0
2.32692487e-01 -7.00748156e-01 0.0
2.13791314e-01 -9.54489707e-01 0.0
3.97137888e-01 -8.71624272e-01 0.0
6.32865867e-01 -6.32865867e-01 0.0
-8.71624272e-01 -3.97137888e-01 0.0
-3.58224653e-01 -3.58224653e-01 0.0
-4.43584722e-01 -5.91529162e-01 0.0
-2.38222173e-01 -1.89490258e-01 0.0
-3.70472359e-01 -8.33547963e-01 0.0
3.70472359e-01 -8.33547963e-01 0.0
2.38222173e-01 -1.89490258e-01 0.0
4.43584722e-01 -5.91529162e-01 0.0
3.58224653e-01 -3.58224653e-01 0.0
8.71624272e-01 -3.97137888e-01 0.0
-9.54489707e-01 -2.13791314e-01 0.0
-5.91529162e-01 -4.43584722e-01 0.0
-4.20054936e-01 -4.20054936e-01 0.0
-8.81555085e-02 -2.81605492e-01 0.0
-2.10193071e-01 -3.36220434e-01 0.0
2.10193071e-01 -3.36220434e-01 0.0
8.81555085e-02 -2.81605492e-01 0.0
4.20054936e-01 -4.20054936e-01 0.0
5.91529162e-01 -4.43584722e-01 0.0
9.54489707e-01 -2.13791314e-01 0.0
-7.00748156e-01 -2.32692487e-01 0.0
-1.89490258e-01 -2.38222173e-01 0.0
-2.81605492e-01 -8.81555085e-02 0.0
-1.01818039e-01 -1.01818039e-01 0.0
-1.45035562e-01 -2.33562884e-02 0.0
1.45035562e-01 -2.33562884e-02 0.0
1.01818039e-01 -1.01818039e-01 0.0
2.81605492e-01 -8.81555085e-02 0.0
1.89490258e-01 -2.38222173e-01 0.0
7.00748156e-01 -2.32692487e-01 0.0
-8.55632257e-01 -8.82198279e-02 0.0
-8.33547963e-01 -3.70472359e-01 0.0
-3.36220434e-01 -2.10193071e-01 0.0
-2.33562884e-02 -1.45035562e-01 0.0
2.97399336e-02 2.97399336e-02 0.0
-2.97399336e-02 2.97399336e-02 0.0
2.33562884e-02 -1.45035562e-01 0.0
3.36220434e-01 -2.10193071e-01 0.0
8.33547963e-01 -3.70472359e-01 0.0
8.55632257e-01 -8.82198279e-02 0.0
-8.55632257e-01 8.82198279e-02 0.0
-8.33547963e-01 3.70472359e-01 0.0
-3.36220434e-01 2.10193071e-01 0.0
-2.33562884e-02 1.45035562e-01 0.0
2.97399336e-02 -2.97399336e-02 0.0
-2.97399336e-02 -2.97399336e-02 0.0
2.33562884e-02 1.45035562e-01 0.0
3.36220434e-01 2.10193071e-01 0.0
8.33547963e-01 3.70472359e-01 0.0
8.55632257e-01 8.82198279e-02 0.0
-7.00748156e-01 2.32692487e-01 0.0
-1.89490258e-01 2.38222173e-01 0.0
-2.81605492e-01 8.81555085e-02 0.0
-1.01818039e-01 1.01818039e-01 0.0
-1.45035562e-01 2.33562884e-02 0.0
1.45035562e-01 2.33562884e-02 0.0
1.01818039e-01 1.01818039e-01 0.0
2.81605492e-01 8.81555085e-02 0.0
1.89490258e-01 2.38222173e-01 0.0
7.00748156e-01 2.32692487e-01 0.0
-9.54489707e-01 2.13791314e-01 0.0
-5.91529162e-01 4.43584722e-01 0.0
-4.20054936e-01 4.20054936e-01 0.0
-8.81555085e-02 2.81605492e-01 0.0
-2.10193071e-01 3.36220434e-01 0.0
2.10193071e-01 3.36220434e-01 0.0
8.81555085e-02 2.81605492e-01 0.0
4.20054936e-01 4.20054936e-01 0.0
5.91529162e-01 4.43584722e-01 0.0
9.54489707e-01 2.13791314e-01 0.0
-8.71624272e-01 3.97137888e-01 0.0
-3.58224653e-01 3.58224653e-01 0.0
-4.43584722e-01 5.91529162e-01 0.0
-2.38222173e-01 1.89490258e-01 0.0
-3.70472359e-01 8.33547963e-01 0.0
3.70472359e-01 8.33547963e-01 0.0
2.38222173e-01 1.89490258e-01 0.0
4.43584722e-01 5.91529162e-01 0.0
3.58224653e-01 3.58224653e-01 0.0
8.71624272e-01 3.97137888e-01 0.0
-6.32865867e-01 6.32865867e-01 0.0
-3.97137888e-01 8.71624272e-01 0.0
-2.13791314e-01 9.54489707e-01 0.0
-2.32692487e-01 7.00748156e-01 0.0
-8.82198279e-02 8.55632257e-01 0.0
8.82198279e-02 8.55632257e-01 0.0
2.32692487e-01 7.00748156e-01 0.0
2.13791314e-01 9.54489707e-01 0.0
3.97137888e-01 8.71624272e-01 0.0
6.32865867e-01 6.32865867e-01 0.0
