# vtk DataFile Version 3.0
MPS Simulation Step 800
ASCII
DATASET UNSTRUCTURED_GRID
POINTS 76 double
-5.88454557e-02 -5.88454557e-02 0.0
-2.01078161e-02 -6.70842790e-02 0.0
2.01078161e-02 -6.70842790e-02 0.0
5.88454557e-02 -5.88454557e-02 0.0
-3.70118243e-02 -3.70118243e-02 0.0
-3.59497276e-02 -5.12342654e-02 0.0
-2.49361065e-02 -2.56841371e-02 0.0
-2.73535743e-02 -6.51112129e-02 0.0
2.73535743e-02 -6.51112129e-02 0.0
2.49361055e-02 -2.56841383e-02 0.0
3.59497276e-02 -5.12342654e-02 0.0
3.70118243e-02 -3.70118243e-02 0.0
-5.12342654e-02 -3.59497276e-02 0.0
-3.53484657e-02 -3.53484657e-02 0.0
-1.82615263e-02 -2.66421683e-02 0.0
-1.92461560e-02 -3.14157862e-02 0.0
1.92461568e-02 -3.14157863e-02 0.0
1.82615293e-02 -2.66421713e-02 0.0
3.53484657e-02 -3.53484657e-02 0.0
5.12342654e-02 -3.59497276e-02 0.0
-6.70842790e-02 -2.01078161e-02 0.0
-2.56841371e-02 -2.49361065e-02 0.0
-2.66421683e-02 -1.82615263e-02 0.0
-1.90105989e-02 -1.90105989e-02 0.0
-3.90360744e-03 -2.58781653e-02 0.0
3.93268253e-03 -2.61170216e-02 0.0
1.90172419e-02 -1.90172419e-02 0.0
2.66421713e-02 -1.82615293e-02 0.0
2.56841383e-02 -2.49361055e-02 0.0
6.70842790e-02 -2.01078161e-02 0.0
-6.51112129e-02 -2.73535743e-02 0.0
-3.14157862e-02 -1.92461560e-02 0.0
-2.58781653e-02 -3.90360744e-03 0.0
-4.71104046e-03 -4.71104046e-03 0.0
3.08559047e-03 -3.08559047e-03 0.0
2.61170216e-02 -3.93268253e-03 0.0
3.14157863e-02 -1.92461568e-02 0.0
6.51112129e-02 -2.73535743e-02 0.0
-6.51112129e-02 2.73535743e-02 0.0
-3.14157863e-02 1.92461568e-02 0.0
-2.61170216e-02 3.93268253e-03 0.0
-3.08559047e-03 3.08559047e-03 0.0
4.71104046e-03 4.71104046e-03 0.0
2.58781653e-02 3.90360744e-03 0.0
3.14157862e-02 1.92461560e-02 0.0
6.51112129e-02 2.73535743e-02 0.0
-6.70842790e-02 2.01078161e-02 0.0
-2.56841383e-02 2.49361055e-02 0.0
-2.66421713e-02 1.82615293e-02 0.0
-1.90172419e-02 1.90172419e-02 0.0
-3.93268253e-03 2.61170216e-02 0.0
3.90360744e-03 2.58781653e-02 0.0
1.90105989e-02 1.90105989e-02 0.0
2.66421683e-02 1.82615263e-02 0.0
2.56841371e-02 2.49361065e-02 0.0
6.70842790e-02 2.01078161e-02 0.0
-5.12342654e-02 3.59497276e-02 0.0
-3.53484657e-02 3.53484657e-02 0.0
-1.82615293e-02 2.66421713e-02 0.0
-1.92461568e-02 3.14157863e-02 0.0
1.92461560e-02 3.14157862e-02 0.0
1.82615263e-02 2.66421683e-02 0.0
3.53484657e-02 3.53484657e-02 0.0
5.12342654e-02 3.59497276e-02 0.0
-3.70118243e-02 3.70118243e-02 0.0
-3.59497276e-02 5.12342654e-02 0.0
-2.49361055e-02 2.56841383e-02 0.0
-2.73535743e-02 6.51112129e-02 0.0
2.73535743e-02 6.51112129e-02 0.0
2.49361065e-02 2.56841371e-02 0.0
3.59497276e-02 5.12342654e-02 0.0
3.70118243e-02 3.70118243e-02 0.0
-5.88454557e-02 5.88454557e-02 0.0
-2.01078161e-02 6.70842790e-02 0.0
2.01078161e-02 6.70842790e-02 0.0
5.88454557e-02 5.88454557e-02 0.0
CELLS 76 152
1 0
1 1
1 2
1 3
1 4
1 5
1 6
1 7
1 8
1 9
1 10
1 11
1 12
1 13
1 14
1 15
1 16
1 17
1 18
1 19
1 20
1 21
1 22
1 23
1 24
1 25
1 26
1 27
1 28
1 29
1 30
1 31
1 32
1 33
1 34
1 35
1 36
1 37
1 38
1 39
1 40
1 41
1 42
1 43
1 44
1 45
1 46
1 47
1 48
1 49
1 50
1 51
1 52
1 53
1 54
1 55
1 56
1 57
1 58
1 59
1 60
1 61
1 62
1 63
1 64
1 65
1 66
1 67
1 68
1 69
1 70
1 71
1 72
1 73
1 74
1 75
CELL_TYPES 76
1
1
1
1
1
1
1
1
1
1
1
1
1
1
1
1
1
1
1
1
1
1
1
1
1
1
1
1
1
1
1
1
1
1
1
1
1
1
1
1
1
1
1
1
1
1
1
1
1
1
1
1
1
1
1
1
1
1
1
1
1
1
1
1
1
1
1
1
1
1
1
1
1
1
1
1
POINT_DATA 76
SCALARS pressure double 1
LOOKUP_TABLE default
0.00000000e+00
0.00000000e+00
0.00000000e+00
0.00000000e+00
0.00000000e+00
0.00000000e+00
0.00000000e+00
0.00000000e+00
0.00000000e+00
0.00000000e+00
0.00000000e+00
0.00000000e+00
0.00000000e+00
0.00000000e+00
0.00000000e+00
0.00000000e+00
0.00000000e+00
0.00000000e+00
0.00000000e+00
0.00000000e+00
0.00000000e+00
0.00000000e+00
0.00000000e+00
0.00000000e+00
0.00000000e+00
0.00000000e+00
0.00000000e+00
0.00000000e+00
0.00000000e+00
0.00000000e+00
0.00000000e+00
0.00000000e+00
0.00000000e+00
0.00000000e+00
0.00000000e+00
0.00000000e+00
0.00000000e+00
0.00000000e+00
0.00000000e+00
0.00000000e+00
0.00000000e+00
0.00000000e+00
0.00000000e+00
0.00000000e+00
0.00000000e+00
0.00000000e+00
0.00000000e+00
0.00000000e+00
0.00000000e+00
0.00000000e+00
0.00000000e+00
0.00000000e+00
0.00000000e+00
0.00000000e+00
0.00000000e+00
0.00000000e+00
0.00000000e+00
0.00000000e+00
0.00000000e+00
0.00000000e+00
0.00000000e+00
0.00000000e+00
0.00000000e+00
0.00000000e+00
0.00000000e+00
0.00000000e+00
0.00000000e+00
0.00000000e+00
0.00000000e+00
0.00000000e+00
0.00000000e+00
0.00000000e+00
0.00000000e+00
0.00000000e+00
0.00000000e+00
0.00000000e+00
SCALARS type int 1
LOOKUP_TABLE default
0
0
0
0
0
0
0
0
0
0
0
0
0
0
0
0
0
0
0
0
0
0
0
0
0
0
0
0
0
0
0
0
0
0
0
0
0
0
0
0
0
0
0
0
0
0
0
0
0
0
0
0
0
0
0
0
0
0
0
0
0
0
0
0
0
0
0
0
0
0
0
0
0
0
0
0
VECTORS velocity double
-6.32866138e-01 -6.32866138e-01 0.0
-2.30381251e-01 -7.76567310e-01 0.0
2.30381251e-01 -7.76567310e-01 0.0
6.32866138e-01 -6.32866138e-01 0.0
-4.23821742e-01 -4.23821742e-01 0.0
-4.43288835e-01 -5.91269900e-01 0.0
-2.85695229e-01 -3.02490095e-01 0.0
-3.72189291e-01 -7.57533733e-01 0.0
3.72189291e-01 -7.57533733e-01 0.0
2.85695224e-01 -3.02490074e-01 0.0
4.43288835e-01 -5.91269900e-01 0.0
4.23821742e-01 -4.23821742e-01 0.0
-5.91269900e-01 -4.43288835e-01 0.0
-4.02425200e-01 -4.02425200e-01 0.0
-2.25936268e-01 -2.96827384e-01 0.0
-2.52655959e-01 -3.59260724e-01 0.0
2.52655974e-01 -3.59260724e-01 0.0
2.25936369e-01 -2.96827422e-01 0.0
4.02425200e-01 -4.02425200e-01 0.0
5.91269900e-01 -4.43288835e-01 0.0
-7.76567310e-01 -2.30381251e-01 0.0
-3.02490095e-01 -2.85695229e-01 0.0
-2.96827384e-01 -2.25936268e-01 0.0
-2.45103848e-01 -2.45103848e-01 0.0
-6.74765362e-02 -3.95976388e-01 0.0
6.79899469e-02 -4.00643547e-01 0.0
2.45221173e-01 -2.45221173e-01 0.0
2.96827422e-01 -2.25936369e-01 0.0
3.02490074e-01 -2.85695224e-01 0.0
7.76567310e-01 -2.30381251e-01 0.0
-7.57533733e-01 -3.72189291e-01 0.0
-3.59260724e-01 -2.52655959e-01 0.0
-3.95976388e-01 -6.74765362e-02 0.0
-7.30889305e-02 -7.30889305e-02 0.0
4.44438571e-02 -4.44438571e-02 0.0
4.00643547e-01 -6.79899469e-02 0.0
3.59260724e-01 -2.52655974e-01 0.0
7.57533733e-01 -3.72189291e-01 0.0
-7.57533733e-01 3.72189291e-01 0.0
-3.59260724e-01 2.52655974e-01 0.0
-4.00643547e-01 6.79899469e-02 0.0
-4.44438571e-02 4.44438571e-02 0.0
7.30889305e-02 7.30889305e-02 0.0
3.95976388e-01 6.74765362e-02 0.0
3.59260724e-01 2.52655959e-01 0.0
7.57533733e-01 3.72189291e-01 0.0
-7.76567310e-01 2.30381251e-01 0.0
-3.02490074e-01 2.85695224e-01 0.0
-2.96827422e-01 2.25936369e-01 0.0
-2.45221173e-01 2.45221173e-01 0.0
-6.79899469e-02 4.00643547e-01 0.0
6.74765362e-02 3.95976388e-01 0.0
2.45103848e-01 2.45103848e-01 0.0
2.96827384e-01 2.25936268e-01 0.0
3.02490095e-01 2.85695229e-01 0.0
7.76567310e-01 2.30381251e-01 0.0
-5.91269900e-01 4.43288835e-01 0.0
-4.02425200e-01 4.02425200e-01 0.0
-2.25936369e-01 2.96827422e-01 0.0
-2.52655974e-01 3.59260724e-01 0.0
2.52655959e-01 3.59260724e-01 0.0
2.25936268e-01 2.96827384e-01 0.0
4.02425200e-01 4.02425200e-01 0.0
5.91269900e-01 4.43288835e-01 0.0
-4.23821742e-01 4.23821742e-01 0.0
-4.43288835e-01 5.91269900e-01 0.0
-2.85695224e-01 3.02490074e-01 0.0
-3.72189291e-01 7.57533733e-01 0.0
3.72189291e-01 7.57533733e-01 0.0
2.85695229e-01 3.02490095e-01 0.0
4.43288835e-01 5.91269900e-01 0.0
4.23821742e-01 4.23821742e-01 0.0
-6.32866138e-01 6.32866138e-01 0.0
-2.30381251e-01 7.76567310e-01 0.0
2.30381251e-01 7.76567310e-01 0.0
6.32866138e-01 6.32866138e-01 0.0
