# vtk DataFile Version 3.0
MPS Simulation Step 1350
ASCII
DATASET UNSTRUCTURED_GRID
POINTS 48 double
-6.03193045e-02 -6.03193045e-02 0.0
-4.06544982e-02 -4.23156397e-02 0.0
4.06544969e-02 -4.23156398e-02 0.0
6.03193045e-02 -6.03193045e-02 0.0
-5.74845673e-02 -5.74845673e-02 0.0
-3.06889432e-02 -4.29691678e-02 0.0
-3.31415961e-02 -5.11736358e-02 0.0
3.31415976e-02 -5.11736359e-02 0.0
3.06889520e-02 -4.29691724e-02 0.0
5.74845673e-02 -5.74845673e-02 0.0
-4.23156397e-02 -4.06544982e-02 0.0
-4.29691678e-02 -3.06889432e-02 0.0
-3.24913214e-02 -3.24913214e-02 0.0
-7.61481244e-03 -4.76568668e-02 0.0
7.67212512e-03 -4.81524165e-02 0.0
3.25044176e-02 -3.25044176e-02 0.0
4.29691724e-02 -3.06889520e-02 0.0
4.23156398e-02 -4.06544969e-02 0.0
-5.11736358e-02 -3.31415961e-02 0.0
-4.76568668e-02 -7.61481244e-03 0.0
-8.73093130e-03 -8.73093130e-03 0.0
5.53000241e-03 -5.53000241e-03 0.0
4.81524165e-02 -7.67212512e-03 0.0
5.11736359e-02 -3.31415976e-02 0.0
-5.11736359e-02 3.31415976e-02 0.0
-4.81524165e-02 7.67212512e-03 0.0
-5.53000241e-03 5.53000241e-03 0.0
8.73093130e-03 8.73093130e-03 0.0
4.76568668e-02 7.61481244e-03 0.0
5.11736358e-02 3.31415961e-02 0.0
-4.23156398e-02 4.06544969e-02 0.0
-4.29691724e-02 3.06889520e-02 0.0
-3.25044176e-02 3.25044176e-02 0.0
-7.67212512e-03 4.81524165e-02 0.0
7.61481244e-03 4.76568668e-02 0.0
3.24913214e-02 3.24913214e-02 0.0
4.29691678e-02 3.06889432e-02 0.0
4.23156397e-02 4.06544982e-02 0.0
-5.74845673e-02 5.74845673e-02 0.0
-3.06889520e-02 4.29691724e-02 0.0
-3.31415976e-02 5.11736359e-02 0.0
3.31415961e-02 5.11736358e-02 0.0
3.06889432e-02 4.29691678e-02 0.0
5.74845673e-02 5.74845673e-02 0.0
-6.03193045e-02 6.03193045e-02 0.0
-4.06544969e-02 4.23156398e-02 0.0
4.06544982e-02 4.23156397e-02 0.0
6.03193045e-02 6.03193045e-02 0.0
CELLS 48 96
1 0
1 1
1 2
1 3
1 4
1 5
1 6
1 7
1 8
1 9
1 10
1 11
1 12
1 13
1 14
1 15
1 16
1 17
1 18
1 19
1 20
1 21
1 22
1 23
1 24
1 25
1 26
1 27
1 28
1 29
1 30
1 31
1 32
1 33
1 34
1 35
1 36
1 37
1 38
1 39
1 40
1 41
1 42
1 43
1 44
1 45
1 46
1 47
CELL_TYPES 48
1
1
1
1
1
1
1
1
1
1
1
1
1
1
1
1
1
1
1
1
1
1
1
1
1
1
1
1
1
1
1
1
1
1
1
1
1
1
1
1
1
1
1
1
1
1
1
1
POINT_DATA 48
SCALARS pressure double 1
LOOKUP_TABLE default
0.00000000e+00
0.00000000e+00
0.00000000e+00
0.00000000e+00
0.00000000e+00
0.00000000e+00
0.00000000e+00
0.00000000e+00
0.00000000e+00
0.00000000e+00
0.00000000e+00
0.00000000e+00
0.00000000e+00
0.00000000e+00
0.00000000e+00
0.00000000e+00
0.00000000e+00
0.00000000e+00
0.00000000e+00
0.00000000e+00
0.00000000e+00
0.00000000e+00
0.00000000e+00
0.00000000e+00
0.00000000e+00
0.00000000e+00
0.00000000e+00
0.00000000e+00
0.00000000e+00
0.00000000e+00
0.00000000e+00
0.00000000e+00
0.00000000e+00
0.00000000e+00
0.00000000e+00
0.00000000e+00
0.00000000e+00
0.00000000e+00
0.00000000e+00
0.00000000e+00
0.00000000e+00
0.00000000e+00
0.00000000e+00
0.00000000e+00
0.00000000e+00
0.00000000e+00
0.00000000e+00
0.00000000e+00
SCALARS type int 1
LOOKUP_TABLE default
0
0
0
0
0
0
0
0
0
0
0
0
0
0
0
0
0
0
0
0
0
0
0
0
0
0
0
0
0
0
0
0
0
0
0
0
0
0
0
0
0
0
0
0
0
0
0
0
VECTORS velocity double
-4.23735705e-01 -4.23735705e-01 0.0
-2.85857978e-01 -3.02321182e-01 0.0
2.85857972e-01 -3.02321161e-01 0.0
4.23735705e-01 -4.23735705e-01 0.0
-4.02511237e-01 -4.02511237e-01 0.0
-2.25957758e-01 -2.96864034e-01 0.0
-2.52640322e-01 -3.59224181e-01 0.0
2.52640337e-01 -3.59224181e-01 0.0
2.25957865e-01 -2.96864061e-01 0.0
4.02511237e-01 -4.02511237e-01 0.0
-3.02321182e-01 -2.85857978e-01 0.0
-2.96864034e-01 -2.25957758e-01 0.0
-2.45104052e-01 -2.45104052e-01 0.0
-6.74764540e-02 -3.95976390e-01 0.0
6.79898647e-02 -4.00643544e-01 0.0
2.45221383e-01 -2.45221383e-01 0.0
2.96864061e-01 -2.25957865e-01 0.0
3.02321161e-01 -2.85857972e-01 0.0
-3.59224181e-01 -2.52640322e-01 0.0
-3.95976390e-01 -6.74764540e-02 0.0
-7.30889245e-02 -7.30889245e-02 0.0
4.44438534e-02 -4.44438534e-02 0.0
4.00643544e-01 -6.79898647e-02 0.0
3.59224181e-01 -2.52640337e-01 0.0
-3.59224181e-01 2.52640337e-01 0.0
-4.00643544e-01 6.79898647e-02 0.0
-4.44438534e-02 4.44438534e-02 0.0
7.30889245e-02 7.30889245e-02 0.0
3.95976390e-01 6.74764540e-02 0.0
3.59224181e-01 2.52640322e-01 0.0
-3.02321161e-01 2.85857972e-01 0.0
-2.96864061e-01 2.25957865e-01 0.0
-2.45221383e-01 2.45221383e-01 0.0
-6.79898647e-02 4.00643544e-01 0.0
6.74764540e-02 3.95976390e-01 0.0
2.45104052e-01 2.45104052e-01 0.0
2.96864034e-01 2.25957758e-01 0.0
3.02321182e-01 2.85857978e-01 0.0
-4.02511237e-01 4.02511237e-01 0.0
-2.25957865e-01 2.96864061e-01 0.0
-2.52640337e-01 3.59224181e-01 0.0
2.52640322e-01 3.59224181e-01 0.0
2.25957758e-01 2.96864034e-01 0.0
4.02511237e-01 4.02511237e-01 0.0
-4.23735705e-01 4.23735705e-01 0.0
-2.85857972e-01 3.02321161e-01 0.0
2.85857978e-01 3.02321182e-01 0.0
4.23735705e-01 4.23735705e-01 0.0
