# vtk DataFile Version 3.0
MPS Simulation Step 1400
ASCII
DATASET UNSTRUCTURED_GRID
POINTS 48 double
-6.24379708e-02 -6.24379708e-02 0.0
-4.20838111e-02 -4.38272226e-02 0.0
4.20838098e-02 -4.38272226e-02 0.0
6.24379708e-02 -6.24379708e-02 0.0
-5.94971357e-02 -5.94971357e-02 0.0
-3.18187320e-02 -4.44534880e-02 0.0
-3.44047977e-02 -5.29697567e-02 0.0
3.44047993e-02 -5.29697568e-02 0.0
3.18187413e-02 -4.44534927e-02 0.0
5.94971357e-02 -5.94971357e-02 0.0
-4.38272226e-02 -4.20838111e-02 0.0
-4.44534880e-02 -3.18187320e-02 0.0
-3.37168416e-02 -3.37168416e-02 0.0
-7.95219471e-03 -4.96367487e-02 0.0
8.01207445e-03 -5.01556343e-02 0.0
3.37305245e-02 -3.37305245e-02 0.0
4.44534927e-02 -3.18187413e-02 0.0
4.38272226e-02 -4.20838098e-02 0.0
-5.29697567e-02 -3.44047977e-02 0.0
-4.96367487e-02 -7.95219471e-03 0.0
-9.09637592e-03 -9.09637592e-03 0.0
5.75222168e-03 -5.75222168e-03 0.0
5.01556343e-02 -8.01207445e-03 0.0
5.29697568e-02 -3.44047993e-02 0.0
-5.29697568e-02 3.44047993e-02 0.0
-5.01556343e-02 8.01207445e-03 0.0
-5.75222168e-03 5.75222168e-03 0.0
9.09637592e-03 9.09637592e-03 0.0
4.96367487e-02 7.95219471e-03 0.0
5.29697567e-02 3.44047977e-02 0.0
-4.38272226e-02 4.20838098e-02 0.0
-4.44534927e-02 3.18187413e-02 0.0
-3.37305245e-02 3.37305245e-02 0.0
-8.01207445e-03 5.01556343e-02 0.0
7.95219471e-03 4.96367487e-02 0.0
3.37168416e-02 3.37168416e-02 0.0
4.44534880e-02 3.18187320e-02 0.0
4.38272226e-02 4.20838111e-02 0.0
-5.94971357e-02 5.94971357e-02 0.0
-3.18187413e-02 4.44534927e-02 0.0
-3.44047993e-02 5.29697568e-02 0.0
3.44047977e-02 5.29697567e-02 0.0
3.18187320e-02 4.44534880e-02 0.0
5.94971357e-02 5.94971357e-02 0.0
-6.24379708e-02 6.24379708e-02 0.0
-4.20838098e-02 4.38272226e-02 0.0
4.20838111e-02 4.38272226e-02 0.0
6.24379708e-02 6.24379708e-02 0.0
CELLS 48 96
1 0
1 1
1 2
1 3
1 4
1 5
1 6
1 7
1 8
1 9
1 10
1 11
1 12
1 13
1 14
1 15
1 16
1 17
1 18
1 19
1 20
1 21
1 22
1 23
1 24
1 25
1 26
1 27
1 28
1 29
1 30
1 31
1 32
1 33
1 34
1 35
1 36
1 37
1 38
1 39
1 40
1 41
1 42
1 43
1 44
1 45
1 46
1 47
CELL_TYPES 48
1
1
1
1
1
1
1
1
1
1
1
1
1
1
1
1
1
1
1
1
1
1
1
1
1
1
1
1
1
1
1
1
1
1
1
1
1
1
1
1
1
1
1
1
1
1
1
1
POINT_DATA 48
SCALARS pressure double 1
LOOKUP_TABLE default
0.00000000e+00
0.00000000e+00
0.00000000e+00
0.00000000e+00
0.00000000e+00
0.00000000e+00
0.00000000e+00
0.00000000e+00
0.00000000e+00
0.00000000e+00
0.00000000e+00
0.00000000e+00
0.00000000e+00
0.00000000e+00
0.00000000e+00
0.00000000e+00
0.00000000e+00
0.00000000e+00
0.00000000e+00
0.00000000e+00
0.00000000e+00
0.00000000e+00
0.00000000e+00
0.00000000e+00
0.00000000e+00
0.00000000e+00
0.00000000e+00
0.00000000e+00
0.00000000e+00
0.00000000e+00
0.00000000e+00
0.00000000e+00
0.00000000e+00
0.00000000e+00
0.00000000e+00
0.00000000e+00
0.00000000e+00
0.00000000e+00
0.00000000e+00
0.00000000e+00
0.00000000e+00
0.00000000e+00
0.00000000e+00
0.00000000e+00
0.00000000e+00
0.00000000e+00
0.00000000e+00
0.00000000e+00
SCALARS type int 1
LOOKUP_TABLE default
0
0
0
0
0
0
0
0
0
0
0
0
0
0
0
0
0
0
0
0
0
0
0
0
0
0
0
0
0
0
0
0
0
0
0
0
0
0
0
0
0
0
0
0
0
0
0
0
VECTORS velocity double
-4.23730958e-01 -4.23730958e-01 0.0
-2.85866895e-01 -3.02312265e-01 0.0
2.85866889e-01 -3.02312244e-01 0.0
4.23730958e-01 -4.23730958e-01 0.0
-4.02515984e-01 -4.02515984e-01 0.0
-2.25957758e-01 -2.96864034e-01 0.0
-2.52640322e-01 -3.59224181e-01 0.0
2.52640337e-01 -3.59224181e-01 0.0
2.25957865e-01 -2.96864061e-01 0.0
4.02515984e-01 -4.02515984e-01 0.0
-3.02312265e-01 -2.85866895e-01 0.0
-2.96864034e-01 -2.25957758e-01 0.0
-2.45104052e-01 -2.45104052e-01 0.0
-6.74764540e-02 -3.95976390e-01 0.0
6.79898647e-02 -4.00643544e-01 0.0
2.45221383e-01 -2.45221383e-01 0.0
2.96864061e-01 -2.25957865e-01 0.0
3.02312244e-01 -2.85866889e-01 0.0
-3.59224181e-01 -2.52640322e-01 0.0
-3.95976390e-01 -6.74764540e-02 0.0
-7.30889245e-02 -7.30889245e-02 0.0
4.44438534e-02 -4.44438534e-02 0.0
4.00643544e-01 -6.79898647e-02 0.0
3.59224181e-01 -2.52640337e-01 0.0
-3.59224181e-01 2.52640337e-01 0.0
-4.00643544e-01 6.79898647e-02 0.0
-4.44438534e-02 4.44438534e-02 0.0
7.30889245e-02 7.30889245e-02 0.0
3.95976390e-01 6.74764540e-02 0.0
3.59224181e-01 2.52640322e-01 0.0
-3.02312244e-01 2.85866889e-01 0.0
-2.96864061e-01 2.25957865e-01 0.0
-2.45221383e-01 2.45221383e-01 0.0
-6.79898647e-02 4.00643544e-01 0.0
6.74764540e-02 3.95976390e-01 0.0
2.45104052e-01 2.45104052e-01 0.0
2.96864034e-01 2.25957758e-01 0.0
3.02312265e-01 2.85866895e-01 0.0
-4.02515984e-01 4.02515984e-01 0.0
-2.25957865e-01 2.96864061e-01 0.0
-2.52640337e-01 3.59224181e-01 0.0
2.52640322e-01 3.59224181e-01 0.0
2.25957758e-01 2.96864034e-01 0.0
4.02515984e-01 4.02515984e-01 0.0
-4.23730958e-01 4.23730958e-01 0.0
-2.85866889e-01 3.02312244e-01 0.0
2.85866895e-01 3.02312265e-01 0.0
4.23730958e-01 4.23730958e-01 0.0
