# vtk DataFile Version 3.0
MPS Simulation Step 1200
ASCII
DATASET UNSTRUCTURED_GRID
POINTS 48 double
-5.39631500e-02 -5.39631500e-02 0.0
-3.63668509e-02 -3.77805997e-02 0.0
3.63668496e-02 -3.77806000e-02 0.0
5.39631500e-02 -5.39631500e-02 0.0
-5.14470177e-02 -5.14470177e-02 0.0
-2.72995774e-02 -3.85162085e-02 0.0
-2.93519907e-02 -4.57852719e-02 0.0
2.93519921e-02 -4.57852719e-02 0.0
2.72995845e-02 -3.85162127e-02 0.0
5.14470177e-02 -5.14470177e-02 0.0
-3.77805997e-02 -3.63668509e-02 0.0
-3.85162085e-02 -2.72995774e-02 0.0
-2.88147606e-02 -2.88147606e-02 0.0
-6.60266563e-03 -4.17172209e-02 0.0
6.65227715e-03 -4.21427634e-02 0.0
2.88260968e-02 -2.88260968e-02 0.0
3.85162127e-02 -2.72995845e-02 0.0
3.77806000e-02 -3.63668496e-02 0.0
-4.57852719e-02 -2.93519907e-02 0.0
-4.17172209e-02 -6.60266563e-03 0.0
-7.63459744e-03 -7.63459744e-03 0.0
4.86334461e-03 -4.86334461e-03 0.0
4.21427634e-02 -6.65227715e-03 0.0
4.57852719e-02 -2.93519921e-02 0.0
-4.57852719e-02 2.93519921e-02 0.0
-4.21427634e-02 6.65227715e-03 0.0
-4.86334461e-03 4.86334461e-03 0.0
7.63459744e-03 7.63459744e-03 0.0
4.17172209e-02 6.60266563e-03 0.0
4.57852719e-02 2.93519907e-02 0.0
-3.77806000e-02 3.63668496e-02 0.0
-3.85162127e-02 2.72995845e-02 0.0
-2.88260968e-02 2.88260968e-02 0.0
-6.65227715e-03 4.21427634e-02 0.0
6.60266563e-03 4.17172209e-02 0.0
2.88147606e-02 2.88147606e-02 0.0
3.85162085e-02 2.72995774e-02 0.0
3.77805997e-02 3.63668509e-02 0.0
-5.14470177e-02 5.14470177e-02 0.0
-2.72995845e-02 3.85162127e-02 0.0
-2.93519921e-02 4.57852719e-02 0.0
2.93519907e-02 4.57852719e-02 0.0
2.72995774e-02 3.85162085e-02 0.0
5.14470177e-02 5.14470177e-02 0.0
-5.39631500e-02 5.39631500e-02 0.0
-3.63668496e-02 3.77806000e-02 0.0
3.63668509e-02 3.77805997e-02 0.0
5.39631500e-02 5.39631500e-02 0.0
CELLS 48 96
1 0
1 1
1 2
1 3
1 4
1 5
1 6
1 7
1 8
1 9
1 10
1 11
1 12
1 13
1 14
1 15
1 16
1 17
1 18
1 19
1 20
1 21
1 22
1 23
1 24
1 25
1 26
1 27
1 28
1 29
1 30
1 31
1 32
1 33
1 34
1 35
1 36
1 37
1 38
1 39
1 40
1 41
1 42
1 43
1 44
1 45
1 46
1 47
CELL_TYPES 48
1
1
1
1
1
1
1
1
1
1
1
1
1
1
1
1
1
1
1
1
1
1
1
1
1
1
1
1
1
1
1
1
1
1
1
1
1
1
1
1
1
1
1
1
1
1
1
1
POINT_DATA 48
SCALARS pressure double 1
LOOKUP_TABLE default
0.00000000e+00
0.00000000e+00
0.00000000e+00
0.00000000e+00
0.00000000e+00
0.00000000e+00
0.00000000e+00
0.00000000e+00
0.00000000e+00
0.00000000e+00
0.00000000e+00
0.00000000e+00
0.00000000e+00
0.00000000e+00
0.00000000e+00
0.00000000e+00
0.00000000e+00
0.00000000e+00
0.00000000e+00
0.00000000e+00
0.00000000e+00
0.00000000e+00
0.00000000e+00
0.00000000e+00
0.00000000e+00
0.00000000e+00
0.00000000e+00
0.00000000e+00
0.00000000e+00
0.00000000e+00
0.00000000e+00
0.00000000e+00
0.00000000e+00
0.00000000e+00
0.00000000e+00
0.00000000e+00
0.00000000e+00
0.00000000e+00
0.00000000e+00
0.00000000e+00
0.00000000e+00
0.00000000e+00
0.00000000e+00
0.00000000e+00
0.00000000e+00
0.00000000e+00
0.00000000e+00
0.00000000e+00
SCALARS type int 1
LOOKUP_TABLE default
0
0
0
0
0
0
0
0
0
0
0
0
0
0
0
0
0
0
0
0
0
0
0
0
0
0
0
0
0
0
0
0
0
0
0
0
0
0
0
0
0
0
0
0
0
0
0
0
VECTORS velocity double
-4.23752303e-01 -4.23752303e-01 0.0
-2.85826966e-01 -3.02352194e-01 0.0
2.85826960e-01 -3.02352173e-01 0.0
4.23752303e-01 -4.23752303e-01 0.0
-4.02494638e-01 -4.02494638e-01 0.0
-2.25957515e-01 -2.96863465e-01 0.0
-2.52640566e-01 -3.59224749e-01 0.0
2.52640580e-01 -3.59224749e-01 0.0
2.25957622e-01 -2.96863492e-01 0.0
4.02494638e-01 -4.02494638e-01 0.0
-3.02352194e-01 -2.85826966e-01 0.0
-2.96863465e-01 -2.25957515e-01 0.0
-2.45104052e-01 -2.45104052e-01 0.0
-6.74764540e-02 -3.95976390e-01 0.0
6.79898647e-02 -4.00643544e-01 0.0
2.45221383e-01 -2.45221383e-01 0.0
2.96863492e-01 -2.25957622e-01 0.0
3.02352173e-01 -2.85826960e-01 0.0
-3.59224749e-01 -2.52640566e-01 0.0
-3.95976390e-01 -6.74764540e-02 0.0
-7.30889245e-02 -7.30889245e-02 0.0
4.44438534e-02 -4.44438534e-02 0.0
4.00643544e-01 -6.79898647e-02 0.0
3.59224749e-01 -2.52640580e-01 0.0
-3.59224749e-01 2.52640580e-01 0.0
-4.00643544e-01 6.79898647e-02 0.0
-4.44438534e-02 4.44438534e-02 0.0
7.30889245e-02 7.30889245e-02 0.0
3.95976390e-01 6.74764540e-02 0.0
3.59224749e-01 2.52640566e-01 0.0
-3.02352173e-01 2.85826960e-01 0.0
-2.96863492e-01 2.25957622e-01 0.0
-2.45221383e-01 2.45221383e-01 0.0
-6.79898647e-02 4.00643544e-01 0.0
6.74764540e-02 3.95976390e-01 0.0
2.45104052e-01 2.45104052e-01 0.0
2.96863465e-01 2.25957515e-01 0.0
3.02352194e-01 2.85826966e-01 0.0
-4.02494638e-01 4.02494638e-01 0.0
-2.25957622e-01 2.96863492e-01 0.0
-2.52640580e-01 3.59224749e-01 0.0
2.52640566e-01 3.59224749e-01 0.0
2.25957515e-01 2.96863465e-01 0.0
4.02494638e-01 4.02494638e-01 0.0
-4.23752303e-01 4.23752303e-01 0.0
-2.85826960e-01 3.02352173e-01 0.0
2.85826966e-01 3.02352194e-01 0.0
4.23752303e-01 4.23752303e-01 0.0
