# vtk DataFile Version 3.0
MPS Simulation Step 150
ASCII
DATASET UNSTRUCTURED_GRID
POINTS 100 double
-1.77091568e-02 -1.77091568e-02 0.0
-1.17942015e-02 -2.03090870e-02 0.0
-7.20910863e-03 -2.09192753e-02 0.0
-5.10645031e-03 -1.76781560e-02 0.0
-1.70034382e-03 -1.89907260e-02 0.0
1.70034382e-03 -1.89907260e-02 0.0
5.10645031e-03 -1.76781560e-02 0.0
7.20910863e-03 -2.09192753e-02 0.0
1.17942015e-02 -2.03090870e-02 0.0
1.77091568e-02 -1.77091568e-02 0.0
-2.03090870e-02 -1.17942015e-02 0.0
-1.08188667e-02 -1.08188667e-02 0.0
-7.13536892e-03 -1.28007791e-02 0.0
-3.71017004e-03 -9.47968654e-03 0.0
-3.18708276e-03 -1.48012877e-02 0.0
3.18708276e-03 -1.48012877e-02 0.0
3.71017004e-03 -9.47968654e-03 0.0
7.13536892e-03 -1.28007791e-02 0.0
1.08188667e-02 -1.08188667e-02 0.0
2.03090870e-02 -1.17942015e-02 0.0
-2.09192753e-02 -7.20910863e-03 0.0
-1.28007791e-02 -7.13536892e-03 0.0
-7.83553743e-03 -7.83553743e-03 0.0
-3.59455100e-03 -7.35084491e-03 0.0
-2.27664293e-03 -7.78494048e-03 0.0
2.27664293e-03 -7.78494048e-03 0.0
3.59455100e-03 -7.35084491e-03 0.0
7.83553743e-03 -7.83553743e-03 0.0
1.28007791e-02 -7.13536892e-03 0.0
2.09192753e-02 -7.20910863e-03 0.0
-1.76781560e-02 -5.10645031e-03 0.0
-9.47968654e-03 -3.71017004e-03 0.0
-7.35084491e-03 -3.59455100e-03 0.0
-3.80605305e-03 -3.80605305e-03 0.0
-1.71241786e-03 -3.34090563e-03 0.0
1.71241786e-03 -3.34090563e-03 0.0
3.80605305e-03 -3.80605305e-03 0.0
7.35084491e-03 -3.59455100e-03 0.0
9.47968654e-03 -3.71017004e-03 0.0
1.76781560e-02 -5.10645031e-03 0.0
-1.89907260e-02 -1.70034382e-03 0.0
-1.48012877e-02 -3.18708276e-03 0.0
-7.78494048e-03 -2.27664293e-03 0.0
-3.34090563e-03 -1.71241786e-03 0.0
-6.92317691e-04 -6.92317691e-04 0.0
6.92317691e-04 -6.92317691e-04 0.0
3.34090563e-03 -1.71241786e-03 0.0
7.78494048e-03 -2.27664293e-03 0.0
1.48012877e-02 -3.18708276e-03 0.0
1.89907260e-02 -1.70034382e-03 0.0
-1.89907260e-02 1.70034382e-03 0.0
-1.48012877e-02 3.18708276e-03 0.0
-7.78494048e-03 2.27664293e-03 0.0
-3.34090563e-03 1.71241786e-03 0.0
-6.92317691e-04 6.92317691e-04 0.0
6.92317691e-04 6.92317691e-04 0.0
3.34090563e-03 1.71241786e-03 0.0
7.78494048e-03 2.27664293e-03 0.0
1.48012877e-02 3.18708276e-03 0.0
1.89907260e-02 1.70034382e-03 0.0
-1.76781560e-02 5.10645031e-03 0.0
-9.47968654e-03 3.71017004e-03 0.0
-7.35084491e-03 3.59455100e-03 0.0
-3.80605305e-03 3.80605305e-03 0.0
-1.71241786e-03 3.34090563e-03 0.0
1.71241786e-03 3.34090563e-03 0.0
3.80605305e-03 3.80605305e-03 0.0
7.35084491e-03 3.59455100e-03 0.0
9.47968654e-03 3.71017004e-03 0.0
1.76781560e-02 5.10645031e-03 0.0
-2.09192753e-02 7.20910863e-03 0.0
-1.28007791e-02 7.13536892e-03 0.0
-7.83553743e-03 7.83553743e-03 0.0
-3.59455100e-03 7.35084491e-03 0.0
-2.27664293e-03 7.78494048e-03 0.0
2.27664293e-03 7.78494048e-03 0.0
3.59455100e-03 7.35084491e-03 0.0
7.83553743e-03 7.83553743e-03 0.0
1.28007791e-02 7.13536892e-03 0.0
2.09192753e-02 7.20910863e-03 0.0
-2.03090870e-02 1.17942015e-02 0.0
-1.08188667e-02 1.08188667e-02 0.0
-7.13536892e-03 1.28007791e-02 0.0
-3.71017004e-03 9.47968654e-03 0.0
-3.18708276e-03 1.48012877e-02 0.0
3.18708276e-03 1.48012877e-02 0.0
3.71017004e-03 9.47968654e-03 0.0
7.13536892e-03 1.28007791e-02 0.0
1.08188667e-02 1.08188667e-02 0.0
2.03090870e-02 1.17942015e-02 0.0
-1.77091568e-02 1.77091568e-02 0.0
-1.17942015e-02 2.03090870e-02 0.0
-7.20910863e-03 2.09192753e-02 0.0
-5.10645031e-03 1.76781560e-02 0.0
-1.70034382e-03 1.89907260e-02 0.0
1.70034382e-03 1.89907260e-02 0.0
5.10645031e-03 1.76781560e-02 0.0
7.20910863e-03 2.09192753e-02 0.0
1.17942015e-02 2.03090870e-02 0.0
1.77091568e-02 1.77091568e-02 0.0
CELLS 100 200
1 0
1 1
1 2
1 3
1 4
1 5
1 6
1 7
1 8
1 9
1 10
1 11
1 12
1 13
1 14
1 15
1 16
1 17
1 18
1 19
1 20
1 21
1 22
1 23
1 24
1 25
1 26
1 27
1 28
1 29
1 30
1 31
1 32
1 33
1 34
1 35
1 36
1 37
1 38
1 39
1 40
1 41
1 42
1 43
1 44
1 45
1 46
1 47
1 48
1 49
1 50
1 51
1 52
1 53
1 54
1 55
1 56
1 57
1 58
1 59
1 60
1 61
1 62
1 63
1 64
1 65
1 66
1 67
1 68
1 69
1 70
1 71
1 72
1 73
1 74
1 75
1 76
1 77
1 78
1 79
1 80
1 81
1 82
1 83
1 84
1 85
1 86
1 87
1 88
1 89
1 90
1 91
1 92
1 93
1 94
1 95
1 96
1 97
1 98
1 99
CELL_TYPES 100
1
1
1
1
1
1
1
1
1
1
1
1
1
1
1
1
1
1
1
1
1
1
1
1
1
1
1
1
1
1
1
1
1
1
1
1
1
1
1
1
1
1
1
1
1
1
1
1
1
1
1
1
1
1
1
1
1
1
1
1
1
1
1
1
1
1
1
1
1
1
1
1
1
1
1
1
1
1
1
1
1
1
1
1
1
1
1
1
1
1
1
1
1
1
1
1
1
1
1
1
POINT_DATA 100
SCALARS pressure double 1
LOOKUP_TABLE default
0.00000000e+00
0.00000000e+00
0.00000000e+00
0.00000000e+00
0.00000000e+00
0.00000000e+00
0.00000000e+00
0.00000000e+00
0.00000000e+00
0.00000000e+00
0.00000000e+00
0.00000000e+00
0.00000000e+00
0.00000000e+00
0.00000000e+00
0.00000000e+00
0.00000000e+00
0.00000000e+00
0.00000000e+00
0.00000000e+00
0.00000000e+00
0.00000000e+00
0.00000000e+00
0.00000000e+00
0.00000000e+00
0.00000000e+00
0.00000000e+00
0.00000000e+00
0.00000000e+00
0.00000000e+00
0.00000000e+00
0.00000000e+00
0.00000000e+00
0.00000000e+00
0.00000000e+00
0.00000000e+00
0.00000000e+00
0.00000000e+00
0.00000000e+00
0.00000000e+00
0.00000000e+00
0.00000000e+00
0.00000000e+00
0.00000000e+00
-9.42723909e+00
-9.42723904e+00
0.00000000e+00
0.00000000e+00
0.00000000e+00
0.00000000e+00
0.00000000e+00
0.00000000e+00
0.00000000e+00
0.00000000e+00
-9.42723904e+00
-9.42723909e+00
0.00000000e+00
0.00000000e+00
0.00000000e+00
0.00000000e+00
0.00000000e+00
0.00000000e+00
0.00000000e+00
0.00000000e+00
0.00000000e+00
0.00000000e+00
0.00000000e+00
0.00000000e+00
0.00000000e+00
0.00000000e+00
0.00000000e+00
0.00000000e+00
0.00000000e+00
0.00000000e+00
0.00000000e+00
0.00000000e+00
0.00000000e+00
0.00000000e+00
0.00000000e+00
0.00000000e+00
0.00000000e+00
0.00000000e+00
0.00000000e+00
0.00000000e+00
0.00000000e+00
0.00000000e+00
0.00000000e+00
0.00000000e+00
0.00000000e+00
0.00000000e+00
0.00000000e+00
0.00000000e+00
0.00000000e+00
0.00000000e+00
0.00000000e+00
0.00000000e+00
0.00000000e+00
0.00000000e+00
0.00000000e+00
0.00000000e+00
SCALARS type int 1
LOOKUP_TABLE default
0
0
0
0
0
0
0
0
0
0
0
0
0
0
0
0
0
0
0
0
0
0
0
0
0
0
0
0
0
0
0
0
0
0
0
0
0
0
0
0
0
0
0
0
0
0
0
0
0
0
0
0
0
0
0
0
0
0
0
0
0
0
0
0
0
0
0
0
0
0
0
0
0
0
0
0
0
0
0
0
0
0
0
0
0
0
0
0
0
0
0
0
0
0
0
0
0
0
0
0
VECTORS velocity double
-6.32866062e-01 -6.32866062e-01 0.0
-3.97112412e-01 -8.71607276e-01 0.0
-2.13832741e-01 -9.54366381e-01 0.0
-2.32672652e-01 -7.00905587e-01 0.0
-8.82124635e-02 -8.55550696e-01 0.0
8.82124635e-02 -8.55550696e-01 0.0
2.32672652e-01 -7.00905587e-01 0.0
2.13832741e-01 -9.54366381e-01 0.0
3.97112412e-01 -8.71607276e-01 0.0
6.32866062e-01 -6.32866062e-01 0.0
-8.71607276e-01 -3.97112412e-01 0.0
-3.58305111e-01 -3.58305111e-01 0.0
-4.43403111e-01 -5.91396072e-01 0.0
-2.55627550e-01 -2.11965804e-01 0.0
-3.70040056e-01 -8.33133911e-01 0.0
3.70040056e-01 -8.33133910e-01 0.0
2.55627550e-01 -2.11965804e-01 0.0
4.43403111e-01 -5.91396072e-01 0.0
3.58305111e-01 -3.58305111e-01 0.0
8.71607276e-01 -3.97112412e-01 0.0
-9.54366381e-01 -2.13832741e-01 0.0
-5.91396072e-01 -4.43403111e-01 0.0
-4.68029086e-01 -4.68029086e-01 0.0
-2.22289470e-01 -2.98608471e-01 0.0
-3.37909782e-01 -3.98675037e-01 0.0
3.37909782e-01 -3.98675037e-01 0.0
2.22289470e-01 -2.98608471e-01 0.0
4.68029086e-01 -4.68029086e-01 0.0
5.91396072e-01 -4.43403111e-01 0.0
9.54366381e-01 -2.13832741e-01 0.0
-7.00905587e-01 -2.32672652e-01 0.0
-2.11965804e-01 -2.55627550e-01 0.0
-2.98608471e-01 -2.22289470e-01 0.0
-1.60793281e-01 -1.60793281e-01 0.0
-1.45826203e-01 1.19793439e-02 0.0
1.45826203e-01 1.19793439e-02 0.0
1.60793281e-01 -1.60793281e-01 0.0
2.98608471e-01 -2.22289470e-01 0.0
2.11965804e-01 -2.55627550e-01 0.0
7.00905587e-01 -2.32672652e-01 0.0
-8.55550696e-01 -8.82124635e-02 0.0
-8.33133910e-01 -3.70040056e-01 0.0
-3.98675037e-01 -3.37909782e-01 0.0
1.19793439e-02 -1.45826203e-01 0.0
1.05970917e-02 1.05970917e-02 0.0
-1.05970917e-02 1.05970917e-02 0.0
-1.19793439e-02 -1.45826203e-01 0.0
3.98675037e-01 -3.37909782e-01 0.0
8.33133910e-01 -3.70040056e-01 0.0
8.55550696e-01 -8.82124635e-02 0.0
-8.55550696e-01 8.82124635e-02 0.0
-8.33133910e-01 3.70040056e-01 0.0
-3.98675037e-01 3.37909782e-01 0.0
1.19793439e-02 1.45826203e-01 0.0
1.05970917e-02 -1.05970917e-02 0.0
-1.05970917e-02 -1.05970917e-02 0.0
-1.19793439e-02 1.45826203e-01 0.0
3.98675037e-01 3.37909782e-01 0.0
8.33133910e-01 3.70040056e-01 0.0
8.55550696e-01 8.82124635e-02 0.0
-7.00905587e-01 2.32672652e-01 0.0
-2.11965804e-01 2.55627550e-01 0.0
-2.98608471e-01 2.22289470e-01 0.0
-1.60793281e-01 1.60793281e-01 0.0
-1.45826203e-01 -1.19793439e-02 0.0
1.45826203e-01 -1.19793439e-02 0.0
1.60793281e-01 1.60793281e-01 0.0
2.98608471e-01 2.22289470e-01 0.0
2.11965804e-01 2.55627550e-01 0.0
7.00905587e-01 2.32672652e-01 0.0
-9.54366381e-01 2.13832741e-01 0.0
-5.91396072e-01 4.43403111e-01 0.0
-4.68029086e-01 4.68029086e-01 0.0
-2.22289470e-01 2.98608471e-01 0.0
-3.37909782e-01 3.98675037e-01 0.0
3.37909782e-01 3.98675037e-01 0.0
2.22289470e-01 2.98608471e-01 0.0
4.68029086e-01 4.68029086e-01 0.0
5.91396072e-01 4.43403111e-01 0.0
9.54366381e-01 2.13832741e-01 0.0
-8.71607276e-01 3.97112412e-01 0.0
-3.58305111e-01 3.58305111e-01 0.0
-4.43403111e-01 5.91396072e-01 0.0
-2.55627550e-01 2.11965804e-01 0.0
-3.70040056e-01 8.33133910e-01 0.0
3.70040056e-01 8.33133911e-01 0.0
2.55627550e-01 2.11965804e-01 0.0
4.43403111e-01 5.91396072e-01 0.0
3.58305111e-01 3.58305111e-01 0.0
8.71607276e-01 3.97112412e-01 0.0
-6.32866062e-01 6.32866062e-01 0.0
-3.97112412e-01 8.71607276e-01 0.0
-2.13832741e-01 9.54366381e-01 0.0
-2.32672652e-01 7.00905587e-01 0.0
-8.82124635e-02 8.55550696e-01 0.0
8.82124635e-02 8.55550696e-01 0.0
2.32672652e-01 7.00905587e-01 0.0
2.13832741e-01 9.54366381e-01 0.0
3.97112412e-01 8.71607276e-01 0.0
6.32866062e-01 6.32866062e-01 0.0
