# vtk DataFile Version 3.0
MPS Simulation Step 1550
ASCII
DATASET UNSTRUCTURED_GRID
POINTS 44 double
-4.63719969e-02 -4.83617243e-02 0.0
4.63719955e-02 -4.83617239e-02 0.0
-6.55349629e-02 -6.55349629e-02 0.0
-3.52080984e-02 -4.89064485e-02 0.0
-3.81944025e-02 -5.83581195e-02 0.0
3.81944044e-02 -5.83581195e-02 0.0
3.52081093e-02 -4.89064536e-02 0.0
6.55349629e-02 -6.55349629e-02 0.0
-4.83617243e-02 -4.63719969e-02 0.0
-4.89064485e-02 -3.52080984e-02 0.0
-3.73934024e-02 -3.73934024e-02 0.0
-8.96434152e-03 -5.55763946e-02 0.0
9.03192242e-03 -5.61652874e-02 0.0
3.74088452e-02 -3.74088452e-02 0.0
4.89064536e-02 -3.52081093e-02 0.0
4.83617239e-02 -4.63719955e-02 0.0
-5.83581195e-02 -3.81944025e-02 0.0
-5.55763946e-02 -8.96434152e-03 0.0
-1.01927098e-02 -1.01927098e-02 0.0
6.41887948e-03 -6.41887948e-03 0.0
5.61652874e-02 -9.03192242e-03 0.0
5.83581195e-02 -3.81944044e-02 0.0
-5.83581195e-02 3.81944044e-02 0.0
-5.61652874e-02 9.03192242e-03 0.0
-6.41887948e-03 6.41887948e-03 0.0
1.01927098e-02 1.01927098e-02 0.0
5.55763946e-02 8.96434152e-03 0.0
5.83581195e-02 3.81944025e-02 0.0
-4.83617239e-02 4.63719955e-02 0.0
-4.89064536e-02 3.52081093e-02 0.0
-3.74088452e-02 3.74088452e-02 0.0
-9.03192242e-03 5.61652874e-02 0.0
8.96434152e-03 5.55763946e-02 0.0
3.73934024e-02 3.73934024e-02 0.0
4.89064485e-02 3.52080984e-02 0.0
4.83617243e-02 4.63719969e-02 0.0
-6.55349629e-02 6.55349629e-02 0.0
-3.52081093e-02 4.89064536e-02 0.0
-3.81944044e-02 5.83581195e-02 0.0
3.81944025e-02 5.83581195e-02 0.0
3.52080984e-02 4.89064485e-02 0.0
6.55349629e-02 6.55349629e-02 0.0
-4.63719955e-02 4.83617239e-02 0.0
4.63719969e-02 4.83617243e-02 0.0
CELLS 44 88
1 0
1 1
1 2
1 3
1 4
1 5
1 6
1 7
1 8
1 9
1 10
1 11
1 12
1 13
1 14
1 15
1 16
1 17
1 18
1 19
1 20
1 21
1 22
1 23
1 24
1 25
1 26
1 27
1 28
1 29
1 30
1 31
1 32
1 33
1 34
1 35
1 36
1 37
1 38
1 39
1 40
1 41
1 42
1 43
CELL_TYPES 44
1
1
1
1
1
1
1
1
1
1
1
1
1
1
1
1
1
1
1
1
1
1
1
1
1
1
1
1
1
1
1
1
1
1
1
1
1
1
1
1
1
1
1
1
POINT_DATA 44
SCALARS pressure double 1
LOOKUP_TABLE default
0.00000000e+00
0.00000000e+00
0.00000000e+00
0.00000000e+00
0.00000000e+00
0.00000000e+00
0.00000000e+00
0.00000000e+00
0.00000000e+00
0.00000000e+00
0.00000000e+00
0.00000000e+00
0.00000000e+00
0.00000000e+00
0.00000000e+00
0.00000000e+00
0.00000000e+00
0.00000000e+00
0.00000000e+00
0.00000000e+00
0.00000000e+00
0.00000000e+00
0.00000000e+00
0.00000000e+00
0.00000000e+00
0.00000000e+00
0.00000000e+00
0.00000000e+00
0.00000000e+00
0.00000000e+00
0.00000000e+00
0.00000000e+00
0.00000000e+00
0.00000000e+00
0.00000000e+00
0.00000000e+00
0.00000000e+00
0.00000000e+00
0.00000000e+00
0.00000000e+00
0.00000000e+00
0.00000000e+00
0.00000000e+00
0.00000000e+00
SCALARS type int 1
LOOKUP_TABLE default
0
0
0
0
0
0
0
0
0
0
0
0
0
0
0
0
0
0
0
0
0
0
0
0
0
0
0
0
0
0
0
0
0
0
0
0
0
0
0
0
0
0
0
0
VECTORS velocity double
-2.85890275e-01 -3.02288885e-01 0.0
2.85890269e-01 -3.02288864e-01 0.0
-4.02524409e-01 -4.02524409e-01 0.0
-2.25957758e-01 -2.96864034e-01 0.0
-2.52640322e-01 -3.59224181e-01 0.0
2.52640337e-01 -3.59224181e-01 0.0
2.25957865e-01 -2.96864061e-01 0.0
4.02524409e-01 -4.02524409e-01 0.0
-3.02288885e-01 -2.85890275e-01 0.0
-2.96864034e-01 -2.25957758e-01 0.0
-2.45104052e-01 -2.45104052e-01 0.0
-6.74764540e-02 -3.95976390e-01 0.0
6.79898647e-02 -4.00643544e-01 0.0
2.45221383e-01 -2.45221383e-01 0.0
2.96864061e-01 -2.25957865e-01 0.0
3.02288864e-01 -2.85890269e-01 0.0
-3.59224181e-01 -2.52640322e-01 0.0
-3.95976390e-01 -6.74764540e-02 0.0
-7.30889245e-02 -7.30889245e-02 0.0
4.44438534e-02 -4.44438534e-02 0.0
4.00643544e-01 -6.79898647e-02 0.0
3.59224181e-01 -2.52640337e-01 0.0
-3.59224181e-01 2.52640337e-01 0.0
-4.00643544e-01 6.79898647e-02 0.0
-4.44438534e-02 4.44438534e-02 0.0
7.30889245e-02 7.30889245e-02 0.0
3.95976390e-01 6.74764540e-02 0.0
3.59224181e-01 2.52640322e-01 0.0
-3.02288864e-01 2.85890269e-01 0.0
-2.96864061e-01 2.25957865e-01 0.0
-2.45221383e-01 2.45221383e-01 0.0
-6.79898647e-02 4.00643544e-01 0.0
6.74764540e-02 3.95976390e-01 0.0
2.45104052e-01 2.45104052e-01 0.0
2.96864034e-01 2.25957758e-01 0.0
3.02288885e-01 2.85890275e-01 0.0
-4.02524409e-01 4.02524409e-01 0.0
-2.25957865e-01 2.96864061e-01 0.0
-2.52640337e-01 3.59224181e-01 0.0
2.52640322e-01 3.59224181e-01 0.0
2.25957758e-01 2.96864034e-01 0.0
4.02524409e-01 4.02524409e-01 0.0
-2.85890269e-01 3.02288864e-01 0.0
2.85890275e-01 3.02288885e-01 0.0
