# vtk DataFile Version 3.0
MPS Simulation Step 300
ASCII
DATASET UNSTRUCTURED_GRID
POINTS 100 double
-2.72021488e-02 -2.72021488e-02 0.0
-1.77505101e-02 -3.33832876e-02 0.0
-1.04170117e-02 -3.52335354e-02 0.0
-8.59541319e-03 -2.82550291e-02 0.0
-3.02404376e-03 -3.18233795e-02 0.0
3.02404376e-03 -3.18233795e-02 0.0
8.59541319e-03 -2.82550291e-02 0.0
1.04170117e-02 -3.52335354e-02 0.0
1.77505101e-02 -3.33832876e-02 0.0
2.72021488e-02 -2.72021488e-02 0.0
-3.33832876e-02 -1.77505101e-02 0.0
-1.61954618e-02 -1.61954618e-02 0.0
-1.37852711e-02 -2.16707032e-02 0.0
-8.22170500e-03 -1.29863993e-02 0.0
-8.73743375e-03 -2.72354219e-02 0.0
8.73743375e-03 -2.72354219e-02 0.0
8.22170503e-03 -1.29863994e-02 0.0
1.37852711e-02 -2.16707032e-02 0.0
1.61954618e-02 -1.61954618e-02 0.0
3.33832876e-02 -1.77505101e-02 0.0
-3.52335354e-02 -1.04170117e-02 0.0
-2.16707032e-02 -1.37852711e-02 0.0
-1.48525499e-02 -1.48525499e-02 0.0
-6.97185597e-03 -1.18029675e-02 0.0
-6.61373287e-03 -1.34453165e-02 0.0
6.61373290e-03 -1.34453165e-02 0.0
6.97185595e-03 -1.18029677e-02 0.0
1.48525499e-02 -1.48525499e-02 0.0
2.16707032e-02 -1.37852711e-02 0.0
3.52335354e-02 -1.04170117e-02 0.0
-2.82550291e-02 -8.59541319e-03 0.0
-1.29863993e-02 -8.22170500e-03 0.0
-1.18029675e-02 -6.97185597e-03 0.0
-6.75603481e-03 -6.75603481e-03 0.0
-5.24880652e-04 -6.07933407e-03 0.0
5.28269093e-04 -6.08450908e-03 0.0
6.75681266e-03 -6.75681266e-03 0.0
1.18029677e-02 -6.97185595e-03 0.0
1.29863994e-02 -8.22170503e-03 0.0
2.82550291e-02 -8.59541319e-03 0.0
-3.18233795e-02 -3.02404376e-03 0.0
-2.72354219e-02 -8.73743375e-03 0.0
-1.34453165e-02 -6.61373287e-03 0.0
-6.07933407e-03 -5.24880652e-04 0.0
-1.05223617e-03 -1.05223617e-03 0.0
8.59629882e-04 -8.59629882e-04 0.0
6.08450908e-03 -5.28269093e-04 0.0
1.34453165e-02 -6.61373290e-03 0.0
2.72354219e-02 -8.73743375e-03 0.0
3.18233795e-02 -3.02404376e-03 0.0
-3.18233795e-02 3.02404376e-03 0.0
-2.72354219e-02 8.73743375e-03 0.0
-1.34453165e-02 6.61373290e-03 0.0
-6.08450908e-03 5.28269093e-04 0.0
-8.59629882e-04 8.59629882e-04 0.0
1.05223617e-03 1.05223617e-03 0.0
6.07933407e-03 5.24880652e-04 0.0
1.34453165e-02 6.61373287e-03 0.0
2.72354219e-02 8.73743375e-03 0.0
3.18233795e-02 3.02404376e-03 0.0
-2.82550291e-02 8.59541319e-03 0.0
-1.29863994e-02 8.22170503e-03 0.0
-1.18029677e-02 6.97185595e-03 0.0
-6.75681266e-03 6.75681266e-03 0.0
-5.28269093e-04 6.08450908e-03 0.0
5.24880652e-04 6.07933407e-03 0.0
6.75603481e-03 6.75603481e-03 0.0
1.18029675e-02 6.97185597e-03 0.0
1.29863993e-02 8.22170500e-03 0.0
2.82550291e-02 8.59541319e-03 0.0
-3.52335354e-02 1.04170117e-02 0.0
-2.16707032e-02 1.37852711e-02 0.0
-1.48525499e-02 1.48525499e-02 0.0
-6.97185595e-03 1.18029677e-02 0.0
-6.61373290e-03 1.34453165e-02 0.0
6.61373287e-03 1.34453165e-02 0.0
6.97185597e-03 1.18029675e-02 0.0
1.48525499e-02 1.48525499e-02 0.0
2.16707032e-02 1.37852711e-02 0.0
3.52335354e-02 1.04170117e-02 0.0
-3.33832876e-02 1.77505101e-02 0.0
-1.61954618e-02 1.61954618e-02 0.0
-1.37852711e-02 2.16707032e-02 0.0
-8.22170503e-03 1.29863994e-02 0.0
-8.73743375e-03 2.72354219e-02 0.0
8.73743375e-03 2.72354219e-02 0.0
8.22170500e-03 1.29863993e-02 0.0
1.37852711e-02 2.16707032e-02 0.0
1.61954618e-02 1.61954618e-02 0.0
3.33832876e-02 1.77505101e-02 0.0
-2.72021488e-02 2.72021488e-02 0.0
-1.77505101e-02 3.33832876e-02 0.0
-1.04170117e-02 3.52335354e-02 0.0
-8.59541319e-03 2.82550291e-02 0.0
-3.02404376e-03 3.18233795e-02 0.0
3.02404376e-03 3.18233795e-02 0.0
8.59541319e-03 2.82550291e-02 0.0
1.04170117e-02 3.52335354e-02 0.0
1.77505101e-02 3.33832876e-02 0.0
2.72021488e-02 2.72021488e-02 0.0
CELLS 100 200
1 0
1 1
1 2
1 3
1 4
1 5
1 6
1 7
1 8
1 9
1 10
1 11
1 12
1 13
1 14
1 15
1 16
1 17
1 18
1 19
1 20
1 21
1 22
1 23
1 24
1 25
1 26
1 27
1 28
1 29
1 30
1 31
1 32
1 33
1 34
1 35
1 36
1 37
1 38
1 39
1 40
1 41
1 42
1 43
1 44
1 45
1 46
1 47
1 48
1 49
1 50
1 51
1 52
1 53
1 54
1 55
1 56
1 57
1 58
1 59
1 60
1 61
1 62
1 63
1 64
1 65
1 66
1 67
1 68
1 69
1 70
1 71
1 72
1 73
1 74
1 75
1 76
1 77
1 78
1 79
1 80
1 81
1 82
1 83
1 84
1 85
1 86
1 87
1 88
1 89
1 90
1 91
1 92
1 93
1 94
1 95
1 96
1 97
1 98
1 99
CELL_TYPES 100
1
1
1
1
1
1
1
1
1
1
1
1
1
1
1
1
1
1
1
1
1
1
1
1
1
1
1
1
1
1
1
1
1
1
1
1
1
1
1
1
1
1
1
1
1
1
1
1
1
1
1
1
1
1
1
1
1
1
1
1
1
1
1
1
1
1
1
1
1
1
1
1
1
1
1
1
1
1
1
1
1
1
1
1
1
1
1
1
1
1
1
1
1
1
1
1
1
1
1
1
POINT_DATA 100
SCALARS pressure double 1
LOOKUP_TABLE default
0.00000000e+00
0.00000000e+00
0.00000000e+00
0.00000000e+00
0.00000000e+00
0.00000000e+00
0.00000000e+00
0.00000000e+00
0.00000000e+00
0.00000000e+00
0.00000000e+00
0.00000000e+00
0.00000000e+00
0.00000000e+00
0.00000000e+00
0.00000000e+00
0.00000000e+00
0.00000000e+00
0.00000000e+00
0.00000000e+00
0.00000000e+00
0.00000000e+00
0.00000000e+00
0.00000000e+00
0.00000000e+00
0.00000000e+00
0.00000000e+00
0.00000000e+00
0.00000000e+00
0.00000000e+00
0.00000000e+00
0.00000000e+00
0.00000000e+00
0.00000000e+00
0.00000000e+00
0.00000000e+00
0.00000000e+00
0.00000000e+00
0.00000000e+00
0.00000000e+00
0.00000000e+00
0.00000000e+00
0.00000000e+00
0.00000000e+00
0.00000000e+00
0.00000000e+00
0.00000000e+00
0.00000000e+00
0.00000000e+00
0.00000000e+00
0.00000000e+00
0.00000000e+00
0.00000000e+00
0.00000000e+00
0.00000000e+00
0.00000000e+00
0.00000000e+00
0.00000000e+00
0.00000000e+00
0.00000000e+00
0.00000000e+00
0.00000000e+00
0.00000000e+00
0.00000000e+00
0.00000000e+00
0.00000000e+00
0.00000000e+00
0.00000000e+00
0.00000000e+00
0.00000000e+00
0.00000000e+00
0.00000000e+00
0.00000000e+00
0.00000000e+00
0.00000000e+00
0.00000000e+00
0.00000000e+00
0.00000000e+00
0.00000000e+00
0.00000000e+00
0.00000000e+00
0.00000000e+00
0.00000000e+00
0.00000000e+00
0.00000000e+00
0.00000000e+00
0.00000000e+00
0.00000000e+00
0.00000000e+00
0.00000000e+00
0.00000000e+00
0.00000000e+00
0.00000000e+00
0.00000000e+00
0.00000000e+00
0.00000000e+00
0.00000000e+00
0.00000000e+00
0.00000000e+00
0.00000000e+00
SCALARS type int 1
LOOKUP_TABLE default
0
0
0
0
0
0
0
0
0
0
0
0
0
0
0
0
0
0
0
0
0
0
0
0
0
0
0
0
0
0
0
0
0
0
0
0
0
0
0
0
0
0
0
0
0
0
0
0
0
0
0
0
0
0
0
0
0
0
0
0
0
0
0
0
0
0
0
0
0
0
0
0
0
0
0
0
0
0
0
0
0
0
0
0
0
0
0
0
0
0
0
0
0
0
0
0
0
0
0
0
VECTORS velocity double
-6.32866138e-01 -6.32866138e-01 0.0
-3.97072965e-01 -8.71619272e-01 0.0
-2.13874899e-01 -9.54243011e-01 0.0
-2.29814854e-01 -7.76638903e-01 0.0
-8.82670636e-02 -8.55487167e-01 0.0
8.82670636e-02 -8.55487167e-01 0.0
2.29814854e-01 -7.76638903e-01 0.0
2.13874899e-01 -9.54243011e-01 0.0
3.97072965e-01 -8.71619272e-01 0.0
6.32866138e-01 -6.32866138e-01 0.0
-8.71619272e-01 -3.97072965e-01 0.0
-3.58579977e-01 -3.58579977e-01 0.0
-4.43294199e-01 -5.91290443e-01 0.0
-3.37003648e-01 -2.51357862e-01 0.0
-3.72762628e-01 -7.57457159e-01 0.0
3.72762628e-01 -7.57457159e-01 0.0
3.37003655e-01 -2.51357871e-01 0.0
4.43294199e-01 -5.91290443e-01 0.0
3.58579977e-01 -3.58579977e-01 0.0
8.71619272e-01 -3.97072965e-01 0.0
-9.54243011e-01 -2.13874899e-01 0.0
-5.91290443e-01 -4.43294199e-01 0.0
-4.67647962e-01 -4.67647962e-01 0.0
-2.25470962e-01 -2.96740354e-01 0.0
-2.52570298e-01 -3.59763533e-01 0.0
2.52570308e-01 -3.59763539e-01 0.0
2.25470958e-01 -2.96740395e-01 0.0
4.67647962e-01 -4.67647962e-01 0.0
5.91290443e-01 -4.43294199e-01 0.0
9.54243011e-01 -2.13874899e-01 0.0
-7.76638903e-01 -2.29814854e-01 0.0
-2.51357862e-01 -3.37003648e-01 0.0
-2.96740354e-01 -2.25470962e-01 0.0
-2.45057909e-01 -2.45057909e-01 0.0
-6.79094401e-02 -3.96035632e-01 0.0
6.84289880e-02 -4.00730104e-01 0.0
2.45175026e-01 -2.45175026e-01 0.0
2.96740395e-01 -2.25470958e-01 0.0
2.51357871e-01 -3.37003655e-01 0.0
7.76638903e-01 -2.29814854e-01 0.0
-8.55487167e-01 -8.82670636e-02 0.0
-7.57457159e-01 -3.72762628e-01 0.0
-3.59763533e-01 -2.52570298e-01 0.0
-3.96035632e-01 -6.79094401e-02 0.0
-7.34427583e-02 -7.34427583e-02 0.0
4.47174142e-02 -4.47174142e-02 0.0
4.00730104e-01 -6.84289880e-02 0.0
3.59763539e-01 -2.52570308e-01 0.0
7.57457159e-01 -3.72762628e-01 0.0
8.55487167e-01 -8.82670636e-02 0.0
-8.55487167e-01 8.82670636e-02 0.0
-7.57457159e-01 3.72762628e-01 0.0
-3.59763539e-01 2.52570308e-01 0.0
-4.00730104e-01 6.84289880e-02 0.0
-4.47174142e-02 4.47174142e-02 0.0
7.34427583e-02 7.34427583e-02 0.0
3.96035632e-01 6.79094401e-02 0.0
3.59763533e-01 2.52570298e-01 0.0
7.57457159e-01 3.72762628e-01 0.0
8.55487167e-01 8.82670636e-02 0.0
-7.76638903e-01 2.29814854e-01 0.0
-2.51357871e-01 3.37003655e-01 0.0
-2.96740395e-01 2.25470958e-01 0.0
-2.45175026e-01 2.45175026e-01 0.0
-6.84289880e-02 4.00730104e-01 0.0
6.79094401e-02 3.96035632e-01 0.0
2.45057909e-01 2.45057909e-01 0.0
2.96740354e-01 2.25470962e-01 0.0
2.51357862e-01 3.37003648e-01 0.0
7.76638903e-01 2.29814854e-01 0.0
-9.54243011e-01 2.13874899e-01 0.0
-5.91290443e-01 4.43294199e-01 0.0
-4.67647962e-01 4.67647962e-01 0.0
-2.25470958e-01 2.96740395e-01 0.0
-2.52570308e-01 3.59763539e-01 0.0
2.52570298e-01 3.59763533e-01 0.0
2.25470962e-01 2.96740354e-01 0.0
4.67647962e-01 4.67647962e-01 0.0
5.91290443e-01 4.43294199e-01 0.0
9.54243011e-01 2.13874899e-01 0.0
-8.71619272e-01 3.97072965e-01 0.0
-3.58579977e-01 3.58579977e-01 0.0
-4.43294199e-01 5.91290443e-01 0.0
-3.37003655e-01 2.51357871e-01 0.0
-3.72762628e-01 7.57457159e-01 0.0
3.72762628e-01 7.57457159e-01 0.0
3.37003648e-01 2.51357862e-01 0.0
4.43294199e-01 5.91290443e-01 0.0
3.58579977e-01 3.58579977e-01 0.0
8.71619272e-01 3.97072965e-01 0.0
-6.32866138e-01 6.32866138e-01 0.0
-3.97072965e-01 8.71619272e-01 0.0
-2.13874899e-01 9.54243011e-01 0.0
-2.29814854e-01 7.76638903e-01 0.0
-8.82670636e-02 8.55487167e-01 0.0
8.82670636e-02 8.55487167e-01 0.0
2.29814854e-01 7.76638903e-01 0.0
2.13874899e-01 9.54243011e-01 0.0
3.97072965e-01 8.71619272e-01 0.0
6.32866138e-01 6.32866138e-01 0.0
