# vtk DataFile Version 3.0
MPS Simulation Step 1800
ASCII
DATASET UNSTRUCTURED_GRID
POINTS 40 double
-5.35196529e-02 -5.59185472e-02 0.0
5.35196513e-02 -5.59185463e-02 0.0
-4.08570423e-02 -5.63280493e-02 0.0
-4.45104106e-02 -6.73387240e-02 0.0
4.45104128e-02 -6.73387240e-02 0.0
4.08570559e-02 -5.63280551e-02 0.0
-5.59185472e-02 -5.35196529e-02 0.0
-5.63280493e-02 -4.08570423e-02 0.0
-4.35210037e-02 -4.35210037e-02 0.0
-1.06512529e-02 -6.54758043e-02 0.0
1.07316690e-02 -6.61813760e-02 0.0
4.35393798e-02 -4.35393798e-02 0.0
5.63280551e-02 -4.08570559e-02 0.0
5.59185463e-02 -5.35196513e-02 0.0
-6.73387240e-02 -4.45104106e-02 0.0
-6.54758043e-02 -1.06512529e-02 0.0
-1.20199329e-02 -1.20199329e-02 0.0
7.52997581e-03 -7.52997581e-03 0.0
6.61813760e-02 -1.07316690e-02 0.0
6.73387240e-02 -4.45104128e-02 0.0
-6.73387240e-02 4.45104128e-02 0.0
-6.61813760e-02 1.07316690e-02 0.0
-7.52997581e-03 7.52997581e-03 0.0
1.20199329e-02 1.20199329e-02 0.0
6.54758043e-02 1.06512529e-02 0.0
6.73387240e-02 4.45104106e-02 0.0
-5.59185463e-02 5.35196513e-02 0.0
-5.63280551e-02 4.08570559e-02 0.0
-4.35393798e-02 4.35393798e-02 0.0
-1.07316690e-02 6.61813760e-02 0.0
1.06512529e-02 6.54758043e-02 0.0
4.35210037e-02 4.35210037e-02 0.0
5.63280493e-02 4.08570423e-02 0.0
5.59185472e-02 5.35196529e-02 0.0
-4.08570559e-02 5.63280551e-02 0.0
-4.45104128e-02 6.73387240e-02 0.0
4.45104106e-02 6.73387240e-02 0.0
4.08570423e-02 5.63280493e-02 0.0
-5.35196513e-02 5.59185463e-02 0.0
5.35196529e-02 5.59185472e-02 0.0
CELLS 40 80
1 0
1 1
1 2
1 3
1 4
1 5
1 6
1 7
1 8
1 9
1 10
1 11
1 12
1 13
1 14
1 15
1 16
1 17
1 18
1 19
1 20
1 21
1 22
1 23
1 24
1 25
1 26
1 27
1 28
1 29
1 30
1 31
1 32
1 33
1 34
1 35
1 36
1 37
1 38
1 39
CELL_TYPES 40
1
1
1
1
1
1
1
1
1
1
1
1
1
1
1
1
1
1
1
1
1
1
1
1
1
1
1
1
1
1
1
1
1
1
1
1
1
1
1
1
POINT_DATA 40
SCALARS pressure double 1
LOOKUP_TABLE default
0.00000000e+00
0.00000000e+00
0.00000000e+00
0.00000000e+00
0.00000000e+00
0.00000000e+00
0.00000000e+00
0.00000000e+00
0.00000000e+00
0.00000000e+00
0.00000000e+00
0.00000000e+00
0.00000000e+00
0.00000000e+00
0.00000000e+00
0.00000000e+00
0.00000000e+00
0.00000000e+00
0.00000000e+00
0.00000000e+00
0.00000000e+00
0.00000000e+00
0.00000000e+00
0.00000000e+00
0.00000000e+00
0.00000000e+00
0.00000000e+00
0.00000000e+00
0.00000000e+00
0.00000000e+00
0.00000000e+00
0.00000000e+00
0.00000000e+00
0.00000000e+00
0.00000000e+00
0.00000000e+00
0.00000000e+00
0.00000000e+00
0.00000000e+00
0.00000000e+00
SCALARS type int 1
LOOKUP_TABLE default
0
0
0
0
0
0
0
0
0
0
0
0
0
0
0
0
0
0
0
0
0
0
0
0
0
0
0
0
0
0
0
0
0
0
0
0
0
0
0
0
VECTORS velocity double
-2.85920531e-01 -3.02258629e-01 0.0
2.85920525e-01 -3.02258608e-01 0.0
-2.25957758e-01 -2.96864034e-01 0.0
-2.52640322e-01 -3.59224181e-01 0.0
2.52640337e-01 -3.59224181e-01 0.0
2.25957865e-01 -2.96864061e-01 0.0
-3.02258629e-01 -2.85920531e-01 0.0
-2.96864034e-01 -2.25957758e-01 0.0
-2.45104052e-01 -2.45104052e-01 0.0
-6.74764540e-02 -3.95976390e-01 0.0
6.79898647e-02 -4.00643544e-01 0.0
2.45221383e-01 -2.45221383e-01 0.0
2.96864061e-01 -2.25957865e-01 0.0
3.02258608e-01 -2.85920525e-01 0.0
-3.59224181e-01 -2.52640322e-01 0.0
-3.95976390e-01 -6.74764540e-02 0.0
-7.30889245e-02 -7.30889245e-02 0.0
4.44438534e-02 -4.44438534e-02 0.0
4.00643544e-01 -6.79898647e-02 0.0
3.59224181e-01 -2.52640337e-01 0.0
-3.59224181e-01 2.52640337e-01 0.0
-4.00643544e-01 6.79898647e-02 0.0
-4.44438534e-02 4.44438534e-02 0.0
7.30889245e-02 7.30889245e-02 0.0
3.95976390e-01 6.74764540e-02 0.0
3.59224181e-01 2.52640322e-01 0.0
-3.02258608e-01 2.85920525e-01 0.0
-2.96864061e-01 2.25957865e-01 0.0
-2.45221383e-01 2.45221383e-01 0.0
-6.79898647e-02 4.00643544e-01 0.0
6.74764540e-02 3.95976390e-01 0.0
2.45104052e-01 2.45104052e-01 0.0
2.96864034e-01 2.25957758e-01 0.0
3.02258629e-01 2.85920531e-01 0.0
-2.25957865e-01 2.96864061e-01 0.0
-2.52640337e-01 3.59224181e-01 0.0
2.52640322e-01 3.59224181e-01 0.0
2.25957758e-01 2.96864034e-01 0.0
-2.85920525e-01 3.02258608e-01 0.0
2.85920531e-01 3.02258629e-01 0.0
