# vtk DataFile Version 3.0
MPS Simulation Step 650
ASCII
DATASET UNSTRUCTURED_GRID
POINTS 92 double
-4.93524636e-02 -4.93524636e-02 0.0
-3.16480447e-02 -6.38899707e-02 0.0
-1.66522331e-02 -5.54357511e-02 0.0
-6.11319776e-03 -6.17653125e-02 0.0
6.11319776e-03 -6.17653125e-02 0.0
1.66522331e-02 -5.54357511e-02 0.0
3.16480447e-02 -6.38899707e-02 0.0
4.93524636e-02 -4.93524636e-02 0.0
-6.38899707e-02 -3.16480447e-02 0.0
-3.06542030e-02 -3.06542030e-02 0.0
-2.93003950e-02 -4.23652169e-02 0.0
-2.00033985e-02 -2.17939511e-02 0.0
-2.17705992e-02 -5.37482251e-02 0.0
2.17705992e-02 -5.37482251e-02 0.0
2.00033982e-02 -2.17939520e-02 0.0
2.93003950e-02 -4.23652169e-02 0.0
3.06542030e-02 -3.06542030e-02 0.0
6.38899707e-02 -3.16480447e-02 0.0
-4.23652169e-02 -2.93003950e-02 0.0
-2.93123829e-02 -2.93123829e-02 0.0
-1.48727599e-02 -2.21899448e-02 0.0
-1.54562387e-02 -2.60265887e-02 0.0
1.54562392e-02 -2.60265888e-02 0.0
1.48727614e-02 -2.21899471e-02 0.0
2.93123829e-02 -2.93123829e-02 0.0
4.23652169e-02 -2.93003950e-02 0.0
-5.54357511e-02 -1.66522331e-02 0.0
-2.17939511e-02 -2.00033985e-02 0.0
-2.21899448e-02 -1.48727599e-02 0.0
-1.53340551e-02 -1.53340551e-02 0.0
-2.89137267e-03 -1.99385225e-02 0.0
2.91274660e-03 -2.01073654e-02 0.0
1.53389382e-02 -1.53389382e-02 0.0
2.21899471e-02 -1.48727614e-02 0.0
2.17939520e-02 -2.00033982e-02 0.0
5.54357511e-02 -1.66522331e-02 0.0
-6.17653125e-02 -6.11319776e-03 0.0
-5.37482251e-02 -2.17705992e-02 0.0
-2.60265887e-02 -1.54562387e-02 0.0
-1.99385225e-02 -2.89137267e-03 0.0
-3.61463691e-03 -3.61463691e-03 0.0
2.41888114e-03 -2.41888114e-03 0.0
2.01073654e-02 -2.91274660e-03 0.0
2.60265888e-02 -1.54562392e-02 0.0
5.37482251e-02 -2.17705992e-02 0.0
6.17653125e-02 -6.11319776e-03 0.0
-6.17653125e-02 6.11319776e-03 0.0
-5.37482251e-02 2.17705992e-02 0.0
-2.60265888e-02 1.54562392e-02 0.0
-2.01073654e-02 2.91274660e-03 0.0
-2.41888114e-03 2.41888114e-03 0.0
3.61463691e-03 3.61463691e-03 0.0
1.99385225e-02 2.89137267e-03 0.0
2.60265887e-02 1.54562387e-02 0.0
5.37482251e-02 2.17705992e-02 0.0
6.17653125e-02 6.11319776e-03 0.0
-5.54357511e-02 1.66522331e-02 0.0
-2.17939520e-02 2.00033982e-02 0.0
-2.21899471e-02 1.48727614e-02 0.0
-1.53389382e-02 1.53389382e-02 0.0
-2.91274660e-03 2.01073654e-02 0.0
2.89137267e-03 1.99385225e-02 0.0
1.53340551e-02 1.53340551e-02 0.0
2.21899448e-02 1.48727599e-02 0.0
2.17939511e-02 2.00033985e-02 0.0
5.54357511e-02 1.66522331e-02 0.0
-4.23652169e-02 2.93003950e-02 0.0
-2.93123829e-02 2.93123829e-02 0.0
-1.48727614e-02 2.21899471e-02 0.0
-1.54562392e-02 2.60265888e-02 0.0
1.54562387e-02 2.60265887e-02 0.0
1.48727599e-02 2.21899448e-02 0.0
2.93123829e-02 2.93123829e-02 0.0
4.23652169e-02 2.93003950e-02 0.0
-6.38899707e-02 3.16480447e-02 0.0
-3.06542030e-02 3.06542030e-02 0.0
-2.93003950e-02 4.23652169e-02 0.0
-2.00033982e-02 2.17939520e-02 0.0
-2.17705992e-02 5.37482251e-02 0.0
2.17705992e-02 5.37482251e-02 0.0
2.00033985e-02 2.17939511e-02 0.0
2.93003950e-02 4.23652169e-02 0.0
3.06542030e-02 3.06542030e-02 0.0
6.38899707e-02 3.16480447e-02 0.0
-4.93524636e-02 4.93524636e-02 0.0
-3.16480447e-02 6.38899707e-02 0.0
-1.66522331e-02 5.54357511e-02 0.0
-6.11319776e-03 6.17653125e-02 0.0
6.11319776e-03 6.17653125e-02 0.0
1.66522331e-02 5.54357511e-02 0.0
3.16480447e-02 6.38899707e-02 0.0
4.93524636e-02 4.93524636e-02 0.0
CELLS 92 184
1 0
1 1
1 2
1 3
1 4
1 5
1 6
1 7
1 8
1 9
1 10
1 11
1 12
1 13
1 14
1 15
1 16
1 17
1 18
1 19
1 20
1 21
1 22
1 23
1 24
1 25
1 26
1 27
1 28
1 29
1 30
1 31
1 32
1 33
1 34
1 35
1 36
1 37
1 38
1 39
1 40
1 41
1 42
1 43
1 44
1 45
1 46
1 47
1 48
1 49
1 50
1 51
1 52
1 53
1 54
1 55
1 56
1 57
1 58
1 59
1 60
1 61
1 62
1 63
1 64
1 65
1 66
1 67
1 68
1 69
1 70
1 71
1 72
1 73
1 74
1 75
1 76
1 77
1 78
1 79
1 80
1 81
1 82
1 83
1 84
1 85
1 86
1 87
1 88
1 89
1 90
1 91
CELL_TYPES 92
1
1
1
1
1
1
1
1
1
1
1
1
1
1
1
1
1
1
1
1
1
1
1
1
1
1
1
1
1
1
1
1
1
1
1
1
1
1
1
1
1
1
1
1
1
1
1
1
1
1
1
1
1
1
1
1
1
1
1
1
1
1
1
1
1
1
1
1
1
1
1
1
1
1
1
1
1
1
1
1
1
1
1
1
1
1
1
1
1
1
1
1
POINT_DATA 92
SCALARS pressure double 1
LOOKUP_TABLE default
0.00000000e+00
0.00000000e+00
0.00000000e+00
0.00000000e+00
0.00000000e+00
0.00000000e+00
0.00000000e+00
0.00000000e+00
0.00000000e+00
0.00000000e+00
0.00000000e+00
0.00000000e+00
0.00000000e+00
0.00000000e+00
0.00000000e+00
0.00000000e+00
0.00000000e+00
0.00000000e+00
0.00000000e+00
0.00000000e+00
0.00000000e+00
0.00000000e+00
0.00000000e+00
0.00000000e+00
0.00000000e+00
0.00000000e+00
0.00000000e+00
0.00000000e+00
0.00000000e+00
0.00000000e+00
0.00000000e+00
0.00000000e+00
0.00000000e+00
0.00000000e+00
0.00000000e+00
0.00000000e+00
0.00000000e+00
0.00000000e+00
0.00000000e+00
0.00000000e+00
0.00000000e+00
0.00000000e+00
0.00000000e+00
0.00000000e+00
0.00000000e+00
0.00000000e+00
0.00000000e+00
0.00000000e+00
0.00000000e+00
0.00000000e+00
0.00000000e+00
0.00000000e+00
0.00000000e+00
0.00000000e+00
0.00000000e+00
0.00000000e+00
0.00000000e+00
0.00000000e+00
0.00000000e+00
0.00000000e+00
0.00000000e+00
0.00000000e+00
0.00000000e+00
0.00000000e+00
0.00000000e+00
0.00000000e+00
0.00000000e+00
0.00000000e+00
0.00000000e+00
0.00000000e+00
0.00000000e+00
0.00000000e+00
0.00000000e+00
0.00000000e+00
0.00000000e+00
0.00000000e+00
0.00000000e+00
0.00000000e+00
0.00000000e+00
0.00000000e+00
0.00000000e+00
0.00000000e+00
0.00000000e+00
0.00000000e+00
0.00000000e+00
0.00000000e+00
0.00000000e+00
0.00000000e+00
0.00000000e+00
0.00000000e+00
0.00000000e+00
0.00000000e+00
SCALARS type int 1
LOOKUP_TABLE default
0
0
0
0
0
0
0
0
0
0
0
0
0
0
0
0
0
0
0
0
0
0
0
0
0
0
0
0
0
0
0
0
0
0
0
0
0
0
0
0
0
0
0
0
0
0
0
0
0
0
0
0
0
0
0
0
0
0
0
0
0
0
0
0
0
0
0
0
0
0
0
0
0
0
0
0
0
0
0
0
0
0
0
0
0
0
0
0
0
0
0
0
VECTORS velocity double
-6.32866138e-01 -6.32866138e-01 0.0
-3.97072407e-01 -8.71619524e-01 0.0
-2.30356119e-01 -7.76570683e-01 0.0
-8.82606736e-02 -8.55483546e-01 0.0
8.82606736e-02 -8.55483546e-01 0.0
2.30356119e-01 -7.76570683e-01 0.0
3.97072407e-01 -8.71619524e-01 0.0
6.32866138e-01 -6.32866138e-01 0.0
-8.71619524e-01 -3.97072407e-01 0.0
-4.23863436e-01 -4.23863436e-01 0.0
-4.43288835e-01 -5.91269900e-01 0.0
-3.36363306e-01 -2.51839722e-01 0.0
-3.72214423e-01 -7.57530360e-01 0.0
3.72214423e-01 -7.57530360e-01 0.0
3.36363253e-01 -2.51839751e-01 0.0
4.43288835e-01 -5.91269900e-01 0.0
4.23863436e-01 -4.23863436e-01 0.0
8.71619524e-01 -3.97072407e-01 0.0
-5.91269900e-01 -4.43288835e-01 0.0
-4.02383506e-01 -4.02383506e-01 0.0
-2.25891795e-01 -2.96802299e-01 0.0
-2.52664739e-01 -3.59306123e-01 0.0
2.52664753e-01 -3.59306123e-01 0.0
2.25891877e-01 -2.96802359e-01 0.0
4.02383506e-01 -4.02383506e-01 0.0
5.91269900e-01 -4.43288835e-01 0.0
-7.76570683e-01 -2.30356119e-01 0.0
-2.51839722e-01 -3.36363306e-01 0.0
-2.96802299e-01 -2.25891795e-01 0.0
-2.45101523e-01 -2.45101523e-01 0.0
-6.74938178e-02 -3.95975792e-01 0.0
6.80072285e-02 -4.00644142e-01 0.0
2.45218844e-01 -2.45218844e-01 0.0
2.96802359e-01 -2.25891877e-01 0.0
2.51839751e-01 -3.36363253e-01 0.0
7.76570683e-01 -2.30356119e-01 0.0
-8.55483546e-01 -8.82606736e-02 0.0
-7.57530360e-01 -3.72214423e-01 0.0
-3.59306123e-01 -2.52664739e-01 0.0
-3.95975792e-01 -6.74938178e-02 0.0
-7.31033246e-02 -7.31033246e-02 0.0
4.44557088e-02 -4.44557088e-02 0.0
4.00644142e-01 -6.80072285e-02 0.0
3.59306123e-01 -2.52664753e-01 0.0
7.57530360e-01 -3.72214423e-01 0.0
8.55483546e-01 -8.82606736e-02 0.0
-8.55483546e-01 8.82606736e-02 0.0
-7.57530360e-01 3.72214423e-01 0.0
-3.59306123e-01 2.52664753e-01 0.0
-4.00644142e-01 6.80072285e-02 0.0
-4.44557088e-02 4.44557088e-02 0.0
7.31033246e-02 7.31033246e-02 0.0
3.95975792e-01 6.74938178e-02 0.0
3.59306123e-01 2.52664739e-01 0.0
7.57530360e-01 3.72214423e-01 0.0
8.55483546e-01 8.82606736e-02 0.0
-7.76570683e-01 2.30356119e-01 0.0
-2.51839751e-01 3.36363253e-01 0.0
-2.96802359e-01 2.25891877e-01 0.0
-2.45218844e-01 2.45218844e-01 0.0
-6.80072285e-02 4.00644142e-01 0.0
6.74938178e-02 3.95975792e-01 0.0
2.45101523e-01 2.45101523e-01 0.0
2.96802299e-01 2.25891795e-01 0.0
2.51839722e-01 3.36363306e-01 0.0
7.76570683e-01 2.30356119e-01 0.0
-5.91269900e-01 4.43288835e-01 0.0
-4.02383506e-01 4.02383506e-01 0.0
-2.25891877e-01 2.96802359e-01 0.0
-2.52664753e-01 3.59306123e-01 0.0
2.52664739e-01 3.59306123e-01 0.0
2.25891795e-01 2.96802299e-01 0.0
4.02383506e-01 4.02383506e-01 0.0
5.91269900e-01 4.43288835e-01 0.0
-8.71619524e-01 3.97072407e-01 0.0
-4.23863436e-01 4.23863436e-01 0.0
-4.43288835e-01 5.91269900e-01 0.0
-3.36363253e-01 2.51839751e-01 0.0
-3.72214423e-01 7.57530360e-01 0.0
3.72214423e-01 7.57530360e-01 0.0
3.36363306e-01 2.51839722e-01 0.0
4.43288835e-01 5.91269900e-01 0.0
4.23863436e-01 4.23863436e-01 0.0
8.71619524e-01 3.97072407e-01 0.0
-6.32866138e-01 6.32866138e-01 0.0
-3.97072407e-01 8.71619524e-01 0.0
-2.30356119e-01 7.76570683e-01 0.0
-8.82606736e-02 8.55483546e-01 0.0
8.82606736e-02 8.55483546e-01 0.0
2.30356119e-01 7.76570683e-01 0.0
3.97072407e-01 8.71619524e-01 0.0
6.32866138e-01 6.32866138e-01 0.0
