# vtk DataFile Version 3.0
MPS Simulation Step 1000
ASCII
DATASET UNSTRUCTURED_GRID
POINTS 56 double
-4.54878301e-02 -4.54878301e-02 0.0
-4.48155043e-02 -6.30596634e-02 0.0
-3.06508274e-02 -3.17330400e-02 0.0
3.06508262e-02 -3.17330407e-02 0.0
4.48155043e-02 -6.30596634e-02 0.0
4.54878301e-02 -4.54878301e-02 0.0
-6.30596634e-02 -4.48155043e-02 0.0
-4.33973987e-02 -4.33973987e-02 0.0
-2.27804589e-02 -3.25790136e-02 0.0
-2.42991476e-02 -3.86007025e-02 0.0
2.42991486e-02 -3.86007026e-02 0.0
2.27804639e-02 -3.25790172e-02 0.0
4.33973987e-02 -4.33973987e-02 0.0
6.30596634e-02 -4.48155043e-02 0.0
-3.17330400e-02 -3.06508274e-02 0.0
-3.25790136e-02 -2.27804589e-02 0.0
-2.39126796e-02 -2.39126796e-02 0.0
-5.25313655e-03 -3.37976931e-02 0.0
5.29247986e-03 -3.41298925e-02 0.0
2.39216692e-02 -2.39216692e-02 0.0
3.25790172e-02 -2.27804639e-02 0.0
3.17330407e-02 -3.06508262e-02 0.0
-3.86007025e-02 -2.42991476e-02 0.0
-3.37976931e-02 -5.25313655e-03 0.0
-6.17281895e-03 -6.17281895e-03 0.0
3.97446754e-03 -3.97446754e-03 0.0
3.41298925e-02 -5.29247986e-03 0.0
3.86007026e-02 -2.42991486e-02 0.0
-3.86007026e-02 2.42991486e-02 0.0
-3.41298925e-02 5.29247986e-03 0.0
-3.97446754e-03 3.97446754e-03 0.0
6.17281895e-03 6.17281895e-03 0.0
3.37976931e-02 5.25313655e-03 0.0
3.86007025e-02 2.42991476e-02 0.0
-3.17330407e-02 3.06508262e-02 0.0
-3.25790172e-02 2.27804639e-02 0.0
-2.39216692e-02 2.39216692e-02 0.0
-5.29247986e-03 3.41298925e-02 0.0
5.25313655e-03 3.37976931e-02 0.0
2.39126796e-02 2.39126796e-02 0.0
3.25790136e-02 2.27804589e-02 0.0
3.17330400e-02 3.06508274e-02 0.0
-6.30596634e-02 4.48155043e-02 0.0
-4.33973987e-02 4.33973987e-02 0.0
-2.27804639e-02 3.25790172e-02 0.0
-2.42991486e-02 3.86007026e-02 0.0
2.42991476e-02 3.86007025e-02 0.0
2.27804589e-02 3.25790136e-02 0.0
4.33973987e-02 4.33973987e-02 0.0
6.30596634e-02 4.48155043e-02 0.0
-4.54878301e-02 4.54878301e-02 0.0
-4.48155043e-02 6.30596634e-02 0.0
-3.06508262e-02 3.17330407e-02 0.0
3.06508274e-02 3.17330400e-02 0.0
4.48155043e-02 6.30596634e-02 0.0
4.54878301e-02 4.54878301e-02 0.0
CELLS 56 112
1 0
1 1
1 2
1 3
1 4
1 5
1 6
1 7
1 8
1 9
1 10
1 11
1 12
1 13
1 14
1 15
1 16
1 17
1 18
1 19
1 20
1 21
1 22
1 23
1 24
1 25
1 26
1 27
1 28
1 29
1 30
1 31
1 32
1 33
1 34
1 35
1 36
1 37
1 38
1 39
1 40
1 41
1 42
1 43
1 44
1 45
1 46
1 47
1 48
1 49
1 50
1 51
1 52
1 53
1 54
1 55
CELL_TYPES 56
1
1
1
1
1
1
1
1
1
1
1
1
1
1
1
1
1
1
1
1
1
1
1
1
1
1
1
1
1
1
1
1
1
1
1
1
1
1
1
1
1
1
1
1
1
1
1
1
1
1
1
1
1
1
1
1
POINT_DATA 56
SCALARS pressure double 1
LOOKUP_TABLE default
0.00000000e+00
0.00000000e+00
0.00000000e+00
0.00000000e+00
0.00000000e+00
0.00000000e+00
0.00000000e+00
0.00000000e+00
0.00000000e+00
0.00000000e+00
0.00000000e+00
0.00000000e+00
0.00000000e+00
0.00000000e+00
0.00000000e+00
0.00000000e+00
0.00000000e+00
0.00000000e+00
0.00000000e+00
0.00000000e+00
0.00000000e+00
0.00000000e+00
0.00000000e+00
0.00000000e+00
0.00000000e+00
0.00000000e+00
0.00000000e+00
0.00000000e+00
0.00000000e+00
0.00000000e+00
0.00000000e+00
0.00000000e+00
0.00000000e+00
0.00000000e+00
0.00000000e+00
0.00000000e+00
0.00000000e+00
0.00000000e+00
0.00000000e+00
0.00000000e+00
0.00000000e+00
0.00000000e+00
0.00000000e+00
0.00000000e+00
0.00000000e+00
0.00000000e+00
0.00000000e+00
0.00000000e+00
0.00000000e+00
0.00000000e+00
0.00000000e+00
0.00000000e+00
0.00000000e+00
0.00000000e+00
0.00000000e+00
0.00000000e+00
SCALARS type int 1
LOOKUP_TABLE default
0
0
0
0
0
0
0
0
0
0
0
0
0
0
0
0
0
0
0
0
0
0
0
0
0
0
0
0
0
0
0
0
0
0
0
0
0
0
0
0
0
0
0
0
0
0
0
0
0
0
0
0
0
0
0
0
VECTORS velocity double
-4.23781356e-01 -4.23781356e-01 0.0
-4.43288835e-01 -5.91269900e-01 0.0
-2.85771930e-01 -3.02407255e-01 0.0
2.85771925e-01 -3.02407234e-01 0.0
4.43288835e-01 -5.91269900e-01 0.0
4.23781356e-01 -4.23781356e-01 0.0
-5.91269900e-01 -4.43288835e-01 0.0
-4.02465586e-01 -4.02465586e-01 0.0
-2.25953341e-01 -2.96853762e-01 0.0
-2.52644717e-01 -3.59234450e-01 0.0
2.52644731e-01 -3.59234450e-01 0.0
2.25953448e-01 -2.96853789e-01 0.0
4.02465586e-01 -4.02465586e-01 0.0
5.91269900e-01 -4.43288835e-01 0.0
-3.02407255e-01 -2.85771930e-01 0.0
-2.96853762e-01 -2.25953341e-01 0.0
-2.45104052e-01 -2.45104052e-01 0.0
-6.74764540e-02 -3.95976390e-01 0.0
6.79898647e-02 -4.00643544e-01 0.0
2.45221383e-01 -2.45221383e-01 0.0
2.96853789e-01 -2.25953448e-01 0.0
3.02407234e-01 -2.85771925e-01 0.0
-3.59234450e-01 -2.52644717e-01 0.0
-3.95976390e-01 -6.74764540e-02 0.0
-7.30889245e-02 -7.30889245e-02 0.0
4.44438534e-02 -4.44438534e-02 0.0
4.00643544e-01 -6.79898647e-02 0.0
3.59234450e-01 -2.52644731e-01 0.0
-3.59234450e-01 2.52644731e-01 0.0
-4.00643544e-01 6.79898647e-02 0.0
-4.44438534e-02 4.44438534e-02 0.0
7.30889245e-02 7.30889245e-02 0.0
3.95976390e-01 6.74764540e-02 0.0
3.59234450e-01 2.52644717e-01 0.0
-3.02407234e-01 2.85771925e-01 0.0
-2.96853789e-01 2.25953448e-01 0.0
-2.45221383e-01 2.45221383e-01 0.0
-6.79898647e-02 4.00643544e-01 0.0
6.74764540e-02 3.95976390e-01 0.0
2.45104052e-01 2.45104052e-01 0.0
2.96853762e-01 2.25953341e-01 0.0
3.02407255e-01 2.85771930e-01 0.0
-5.91269900e-01 4.43288835e-01 0.0
-4.02465586e-01 4.02465586e-01 0.0
-2.25953448e-01 2.96853789e-01 0.0
-2.52644731e-01 3.59234450e-01 0.0
2.52644717e-01 3.59234450e-01 0.0
2.25953341e-01 2.96853762e-01 0.0
4.02465586e-01 4.02465586e-01 0.0
5.91269900e-01 4.43288835e-01 0.0
-4.23781356e-01 4.23781356e-01 0.0
-4.43288835e-01 5.91269900e-01 0.0
-2.85771925e-01 3.02407234e-01 0.0
2.85771930e-01 3.02407255e-01 0.0
4.43288835e-01 5.91269900e-01 0.0
4.23781356e-01 4.23781356e-01 0.0
