# vtk DataFile Version 3.0
MPS Simulation Step 600
ASCII
DATASET UNSTRUCTURED_GRID
POINTS 100 double
-4.61881329e-02 -4.61881329e-02 0.0
-2.96626827e-02 -5.95318731e-02 0.0
-1.68332804e-02 -6.38607589e-02 0.0
-1.55004974e-02 -5.15528916e-02 0.0
-5.67189439e-03 -5.74878948e-02 0.0
5.67189439e-03 -5.74878948e-02 0.0
1.55004974e-02 -5.15528916e-02 0.0
1.68332804e-02 -6.38607589e-02 0.0
2.96626827e-02 -5.95318731e-02 0.0
4.61881329e-02 -4.61881329e-02 0.0
-5.95318731e-02 -2.96626827e-02 0.0
-2.85348449e-02 -2.85348449e-02 0.0
-2.70839509e-02 -3.94088674e-02 0.0
-1.83214304e-02 -2.05348807e-02 0.0
-1.99094822e-02 -4.99605793e-02 0.0
1.99094822e-02 -4.99605793e-02 0.0
1.83214303e-02 -2.05348815e-02 0.0
2.70839509e-02 -3.94088674e-02 0.0
2.85348449e-02 -2.85348449e-02 0.0
5.95318731e-02 -2.96626827e-02 0.0
-6.38607589e-02 -1.68332804e-02 0.0
-3.94088674e-02 -2.70839509e-02 0.0
-2.73005063e-02 -2.73005063e-02 0.0
-1.37433605e-02 -2.07059547e-02 0.0
-1.41929140e-02 -2.42299973e-02 0.0
1.41929144e-02 -2.42299973e-02 0.0
1.37433617e-02 -2.07059566e-02 0.0
2.73005063e-02 -2.73005063e-02 0.0
3.94088674e-02 -2.70839509e-02 0.0
6.38607589e-02 -1.68332804e-02 0.0
-5.15528916e-02 -1.55004974e-02 0.0
-2.05348807e-02 -1.83214304e-02 0.0
-2.07059547e-02 -1.37433605e-02 0.0
-1.41085517e-02 -1.41085517e-02 0.0
-2.55386985e-03 -1.79586447e-02 0.0
2.57267673e-03 -1.81041436e-02 0.0
1.41128483e-02 -1.41128483e-02 0.0
2.07059566e-02 -1.37433617e-02 0.0
2.05348815e-02 -1.83214303e-02 0.0
5.15528916e-02 -1.55004974e-02 0.0
-5.74878948e-02 -5.67189439e-03 0.0
-4.99605793e-02 -1.99094822e-02 0.0
-2.42299973e-02 -1.41929140e-02 0.0
-1.79586447e-02 -2.55386985e-03 0.0
-3.24909138e-03 -3.24909138e-03 0.0
2.19657447e-03 -2.19657447e-03 0.0
1.81041436e-02 -2.57267673e-03 0.0
2.42299973e-02 -1.41929144e-02 0.0
4.99605793e-02 -1.99094822e-02 0.0
5.74878948e-02 -5.67189439e-03 0.0
-5.74878948e-02 5.67189439e-03 0.0
-4.99605793e-02 1.99094822e-02 0.0
-2.42299973e-02 1.41929144e-02 0.0
-1.81041436e-02 2.57267673e-03 0.0
-2.19657447e-03 2.19657447e-03 0.0
3.24909138e-03 3.24909138e-03 0.0
1.79586447e-02 2.55386985e-03 0.0
2.42299973e-02 1.41929140e-02 0.0
4.99605793e-02 1.99094822e-02 0.0
5.74878948e-02 5.67189439e-03 0.0
-5.15528916e-02 1.55004974e-02 0.0
-2.05348815e-02 1.83214303e-02 0.0
-2.07059566e-02 1.37433617e-02 0.0
-1.41128483e-02 1.41128483e-02 0.0
-2.57267673e-03 1.81041436e-02 0.0
2.55386985e-03 1.79586447e-02 0.0
1.41085517e-02 1.41085517e-02 0.0
2.07059547e-02 1.37433605e-02 0.0
2.05348807e-02 1.83214304e-02 0.0
5.15528916e-02 1.55004974e-02 0.0
-6.38607589e-02 1.68332804e-02 0.0
-3.94088674e-02 2.70839509e-02 0.0
-2.73005063e-02 2.73005063e-02 0.0
-1.37433617e-02 2.07059566e-02 0.0
-1.41929144e-02 2.42299973e-02 0.0
1.41929140e-02 2.42299973e-02 0.0
1.37433605e-02 2.07059547e-02 0.0
2.73005063e-02 2.73005063e-02 0.0
3.94088674e-02 2.70839509e-02 0.0
6.38607589e-02 1.68332804e-02 0.0
-5.95318731e-02 2.96626827e-02 0.0
-2.85348449e-02 2.85348449e-02 0.0
-2.70839509e-02 3.94088674e-02 0.0
-1.83214303e-02 2.05348815e-02 0.0
-1.99094822e-02 4.99605793e-02 0.0
1.99094822e-02 4.99605793e-02 0.0
1.83214304e-02 2.05348807e-02 0.0
2.70839509e-02 3.94088674e-02 0.0
2.85348449e-02 2.85348449e-02 0.0
5.95318731e-02 2.96626827e-02 0.0
-4.61881329e-02 4.61881329e-02 0.0
-2.96626827e-02 5.95318731e-02 0.0
-1.68332804e-02 6.38607589e-02 0.0
-1.55004974e-02 5.15528916e-02 0.0
-5.67189439e-03 5.74878948e-02 0.0
5.67189439e-03 5.74878948e-02 0.0
1.55004974e-02 5.15528916e-02 0.0
1.68332804e-02 6.38607589e-02 0.0
2.96626827e-02 5.95318731e-02 0.0
4.61881329e-02 4.61881329e-02 0.0
CELLS 100 200
1 0
1 1
1 2
1 3
1 4
1 5
1 6
1 7
1 8
1 9
1 10
1 11
1 12
1 13
1 14
1 15
1 16
1 17
1 18
1 19
1 20
1 21
1 22
1 23
1 24
1 25
1 26
1 27
1 28
1 29
1 30
1 31
1 32
1 33
1 34
1 35
1 36
1 37
1 38
1 39
1 40
1 41
1 42
1 43
1 44
1 45
1 46
1 47
1 48
1 49
1 50
1 51
1 52
1 53
1 54
1 55
1 56
1 57
1 58
1 59
1 60
1 61
1 62
1 63
1 64
1 65
1 66
1 67
1 68
1 69
1 70
1 71
1 72
1 73
1 74
1 75
1 76
1 77
1 78
1 79
1 80
1 81
1 82
1 83
1 84
1 85
1 86
1 87
1 88
1 89
1 90
1 91
1 92
1 93
1 94
1 95
1 96
1 97
1 98
1 99
CELL_TYPES 100
1
1
1
1
1
1
1
1
1
1
1
1
1
1
1
1
1
1
1
1
1
1
1
1
1
1
1
1
1
1
1
1
1
1
1
1
1
1
1
1
1
1
1
1
1
1
1
1
1
1
1
1
1
1
1
1
1
1
1
1
1
1
1
1
1
1
1
1
1
1
1
1
1
1
1
1
1
1
1
1
1
1
1
1
1
1
1
1
1
1
1
1
1
1
1
1
1
1
1
1
POINT_DATA 100
SCALARS pressure double 1
LOOKUP_TABLE default
0.00000000e+00
0.00000000e+00
0.00000000e+00
0.00000000e+00
0.00000000e+00
0.00000000e+00
0.00000000e+00
0.00000000e+00
0.00000000e+00
0.00000000e+00
0.00000000e+00
0.00000000e+00
0.00000000e+00
0.00000000e+00
0.00000000e+00
0.00000000e+00
0.00000000e+00
0.00000000e+00
0.00000000e+00
0.00000000e+00
0.00000000e+00
0.00000000e+00
0.00000000e+00
0.00000000e+00
0.00000000e+00
0.00000000e+00
0.00000000e+00
0.00000000e+00
0.00000000e+00
0.00000000e+00
0.00000000e+00
0.00000000e+00
0.00000000e+00
0.00000000e+00
0.00000000e+00
0.00000000e+00
0.00000000e+00
0.00000000e+00
0.00000000e+00
0.00000000e+00
0.00000000e+00
0.00000000e+00
0.00000000e+00
0.00000000e+00
0.00000000e+00
0.00000000e+00
0.00000000e+00
0.00000000e+00
0.00000000e+00
0.00000000e+00
0.00000000e+00
0.00000000e+00
0.00000000e+00
0.00000000e+00
0.00000000e+00
0.00000000e+00
0.00000000e+00
0.00000000e+00
0.00000000e+00
0.00000000e+00
0.00000000e+00
0.00000000e+00
0.00000000e+00
0.00000000e+00
0.00000000e+00
0.00000000e+00
0.00000000e+00
0.00000000e+00
0.00000000e+00
0.00000000e+00
0.00000000e+00
0.00000000e+00
0.00000000e+00
0.00000000e+00
0.00000000e+00
0.00000000e+00
0.00000000e+00
0.00000000e+00
0.00000000e+00
0.00000000e+00
0.00000000e+00
0.00000000e+00
0.00000000e+00
0.00000000e+00
0.00000000e+00
0.00000000e+00
0.00000000e+00
0.00000000e+00
0.00000000e+00
0.00000000e+00
0.00000000e+00
0.00000000e+00
0.00000000e+00
0.00000000e+00
0.00000000e+00
0.00000000e+00
0.00000000e+00
0.00000000e+00
0.00000000e+00
0.00000000e+00
SCALARS type int 1
LOOKUP_TABLE default
0
0
0
0
0
0
0
0
0
0
0
0
0
0
0
0
0
0
0
0
0
0
0
0
0
0
0
0
0
0
0
0
0
0
0
0
0
0
0
0
0
0
0
0
0
0
0
0
0
0
0
0
0
0
0
0
0
0
0
0
0
0
0
0
0
0
0
0
0
0
0
0
0
0
0
0
0
0
0
0
0
0
0
0
0
0
0
0
0
0
0
0
0
0
0
0
0
0
0
0
VECTORS velocity double
-6.32866138e-01 -6.32866138e-01 0.0
-3.97072407e-01 -8.71619524e-01 0.0
-2.13875645e-01 -9.54240674e-01 0.0
-2.30336523e-01 -7.76573313e-01 0.0
-8.82606736e-02 -8.55483546e-01 0.0
8.82606736e-02 -8.55483546e-01 0.0
2.30336523e-01 -7.76573313e-01 0.0
2.13875645e-01 -9.54240674e-01 0.0
3.97072407e-01 -8.71619524e-01 0.0
6.32866138e-01 -6.32866138e-01 0.0
-8.71619524e-01 -3.97072407e-01 0.0
-4.23880460e-01 -4.23880460e-01 0.0
-4.43288835e-01 -5.91269900e-01 0.0
-3.36424676e-01 -2.51788394e-01 0.0
-3.72234020e-01 -7.57527730e-01 0.0
3.72234020e-01 -7.57527730e-01 0.0
3.36424640e-01 -2.51788424e-01 0.0
4.43288835e-01 -5.91269900e-01 0.0
4.23880460e-01 -4.23880460e-01 0.0
8.71619524e-01 -3.97072407e-01 0.0
-9.54240674e-01 -2.13875645e-01 0.0
-5.91269900e-01 -4.43288835e-01 0.0
-4.02366482e-01 -4.02366482e-01 0.0
-2.25866380e-01 -2.96793534e-01 0.0
-2.52664842e-01 -3.59332097e-01 0.0
2.52664857e-01 -3.59332096e-01 0.0
2.25866454e-01 -2.96793597e-01 0.0
4.02366482e-01 -4.02366482e-01 0.0
5.91269900e-01 -4.43288835e-01 0.0
9.54240674e-01 -2.13875645e-01 0.0
-7.76573313e-01 -2.30336523e-01 0.0
-2.51788394e-01 -3.36424676e-01 0.0
-2.96793534e-01 -2.25866380e-01 0.0
-2.45099583e-01 -2.45099583e-01 0.0
-6.75085626e-02 -3.95975284e-01 0.0
6.80219733e-02 -4.00644650e-01 0.0
2.45216892e-01 -2.45216892e-01 0.0
2.96793597e-01 -2.25866454e-01 0.0
2.51788424e-01 -3.36424640e-01 0.0
7.76573313e-01 -2.30336523e-01 0.0
-8.55483546e-01 -8.82606736e-02 0.0
-7.57527730e-01 -3.72234020e-01 0.0
-3.59332097e-01 -2.52664842e-01 0.0
-3.95975284e-01 -6.75085626e-02 0.0
-7.31159492e-02 -7.31159492e-02 0.0
4.44681067e-02 -4.44681067e-02 0.0
4.00644650e-01 -6.80219733e-02 0.0
3.59332096e-01 -2.52664857e-01 0.0
7.57527730e-01 -3.72234020e-01 0.0
8.55483546e-01 -8.82606736e-02 0.0
-8.55483546e-01 8.82606736e-02 0.0
-7.57527730e-01 3.72234020e-01 0.0
-3.59332096e-01 2.52664857e-01 0.0
-4.00644650e-01 6.80219733e-02 0.0
-4.44681067e-02 4.44681067e-02 0.0
7.31159492e-02 7.31159492e-02 0.0
3.95975284e-01 6.75085626e-02 0.0
3.59332097e-01 2.52664842e-01 0.0
7.57527730e-01 3.72234020e-01 0.0
8.55483546e-01 8.82606736e-02 0.0
-7.76573313e-01 2.30336523e-01 0.0
-2.51788424e-01 3.36424640e-01 0.0
-2.96793597e-01 2.25866454e-01 0.0
-2.45216892e-01 2.45216892e-01 0.0
-6.80219733e-02 4.00644650e-01 0.0
6.75085626e-02 3.95975284e-01 0.0
2.45099583e-01 2.45099583e-01 0.0
2.96793534e-01 2.25866380e-01 0.0
2.51788394e-01 3.36424676e-01 0.0
7.76573313e-01 2.30336523e-01 0.0
-9.54240674e-01 2.13875645e-01 0.0
-5.91269900e-01 4.43288835e-01 0.0
-4.02366482e-01 4.02366482e-01 0.0
-2.25866454e-01 2.96793597e-01 0.0
-2.52664857e-01 3.59332096e-01 0.0
2.52664842e-01 3.59332097e-01 0.0
2.25866380e-01 2.96793534e-01 0.0
4.02366482e-01 4.02366482e-01 0.0
5.91269900e-01 4.43288835e-01 0.0
9.54240674e-01 2.13875645e-01 0.0
-8.71619524e-01 3.97072407e-01 0.0
-4.23880460e-01 4.23880460e-01 0.0
-4.43288835e-01 5.91269900e-01 0.0
-3.36424640e-01 2.51788424e-01 0.0
-3.72234020e-01 7.57527730e-01 0.0
3.72234020e-01 7.57527730e-01 0.0
3.36424676e-01 2.51788394e-01 0.0
4.43288835e-01 5.91269900e-01 0.0
4.23880460e-01 4.23880460e-01 0.0
8.71619524e-01 3.97072407e-01 0.0
-6.32866138e-01 6.32866138e-01 0.0
-3.97072407e-01 8.71619524e-01 0.0
-2.13875645e-01 9.54240674e-01 0.0
-2.30336523e-01 7.76573313e-01 0.0
-8.82606736e-02 8.55483546e-01 0.0
8.82606736e-02 8.55483546e-01 0.0
2.30336523e-01 7.76573313e-01 0.0
2.13875645e-01 9.54240674e-01 0.0
3.97072407e-01 8.71619524e-01 0.0
6.32866138e-01 6.32866138e-01 0.0
