# vtk DataFile Version 3.0
MPS Simulation Step 1100
ASCII
DATASET UNSTRUCTURED_GRID
POINTS 48 double
-4.97255624e-02 -4.97255624e-02 0.0
-3.35087022e-02 -3.47569568e-02 0.0
3.35087010e-02 -3.47569574e-02 0.0
4.97255624e-02 -4.97255624e-02 0.0
-4.74221358e-02 -4.74221358e-02 0.0
-2.50400079e-02 -3.55475872e-02 0.0
-2.68255794e-02 -4.21930111e-02 0.0
2.68255806e-02 -4.21930112e-02 0.0
2.50400140e-02 -3.55475910e-02 0.0
4.74221358e-02 -4.74221358e-02 0.0
-3.47569568e-02 -3.35087022e-02 0.0
-3.55475872e-02 -2.50400079e-02 0.0
-2.63637201e-02 -2.63637201e-02 0.0
-5.92790109e-03 -3.77574570e-02 0.0
5.97237851e-03 -3.81363279e-02 0.0
2.63738830e-02 -2.63738830e-02 0.0
3.55475910e-02 -2.50400140e-02 0.0
3.47569574e-02 -3.35087010e-02 0.0
-4.21930111e-02 -2.68255794e-02 0.0
-3.77574570e-02 -5.92790109e-03 0.0
-6.90370819e-03 -6.90370819e-03 0.0
4.41890607e-03 -4.41890607e-03 0.0
3.81363279e-02 -5.97237851e-03 0.0
4.21930112e-02 -2.68255806e-02 0.0
-4.21930112e-02 2.68255806e-02 0.0
-3.81363279e-02 5.97237851e-03 0.0
-4.41890607e-03 4.41890607e-03 0.0
6.90370819e-03 6.90370819e-03 0.0
3.77574570e-02 5.92790109e-03 0.0
4.21930111e-02 2.68255794e-02 0.0
-3.47569574e-02 3.35087010e-02 0.0
-3.55475910e-02 2.50400140e-02 0.0
-2.63738830e-02 2.63738830e-02 0.0
-5.97237851e-03 3.81363279e-02 0.0
5.92790109e-03 3.77574570e-02 0.0
2.63637201e-02 2.63637201e-02 0.0
3.55475872e-02 2.50400079e-02 0.0
3.47569568e-02 3.35087022e-02 0.0
-4.74221358e-02 4.74221358e-02 0.0
-2.50400140e-02 3.55475910e-02 0.0
-2.68255806e-02 4.21930112e-02 0.0
2.68255794e-02 4.21930111e-02 0.0
2.50400079e-02 3.55475872e-02 0.0
4.74221358e-02 4.74221358e-02 0.0
-4.97255624e-02 4.97255624e-02 0.0
-3.35087010e-02 3.47569574e-02 0.0
3.35087022e-02 3.47569568e-02 0.0
4.97255624e-02 4.97255624e-02 0.0
CELLS 48 96
1 0
1 1
1 2
1 3
1 4
1 5
1 6
1 7
1 8
1 9
1 10
1 11
1 12
1 13
1 14
1 15
1 16
1 17
1 18
1 19
1 20
1 21
1 22
1 23
1 24
1 25
1 26
1 27
1 28
1 29
1 30
1 31
1 32
1 33
1 34
1 35
1 36
1 37
1 38
1 39
1 40
1 41
1 42
1 43
1 44
1 45
1 46
1 47
CELL_TYPES 48
1
1
1
1
1
1
1
1
1
1
1
1
1
1
1
1
1
1
1
1
1
1
1
1
1
1
1
1
1
1
1
1
1
1
1
1
1
1
1
1
1
1
1
1
1
1
1
1
POINT_DATA 48
SCALARS pressure double 1
LOOKUP_TABLE default
0.00000000e+00
0.00000000e+00
0.00000000e+00
0.00000000e+00
0.00000000e+00
0.00000000e+00
0.00000000e+00
0.00000000e+00
0.00000000e+00
0.00000000e+00
0.00000000e+00
0.00000000e+00
0.00000000e+00
0.00000000e+00
0.00000000e+00
0.00000000e+00
0.00000000e+00
0.00000000e+00
0.00000000e+00
0.00000000e+00
0.00000000e+00
0.00000000e+00
0.00000000e+00
0.00000000e+00
0.00000000e+00
0.00000000e+00
0.00000000e+00
0.00000000e+00
0.00000000e+00
0.00000000e+00
0.00000000e+00
0.00000000e+00
0.00000000e+00
0.00000000e+00
0.00000000e+00
0.00000000e+00
0.00000000e+00
0.00000000e+00
0.00000000e+00
0.00000000e+00
0.00000000e+00
0.00000000e+00
0.00000000e+00
0.00000000e+00
0.00000000e+00
0.00000000e+00
0.00000000e+00
0.00000000e+00
SCALARS type int 1
LOOKUP_TABLE default
0
0
0
0
0
0
0
0
0
0
0
0
0
0
0
0
0
0
0
0
0
0
0
0
0
0
0
0
0
0
0
0
0
0
0
0
0
0
0
0
0
0
0
0
0
0
0
0
VECTORS velocity double
-4.23765688e-01 -4.23765688e-01 0.0
-2.85801832e-01 -3.02377328e-01 0.0
2.85801826e-01 -3.02377307e-01 0.0
4.23765688e-01 -4.23765688e-01 0.0
-4.02481254e-01 -4.02481254e-01 0.0
-2.25956149e-01 -2.96860273e-01 0.0
-2.52641931e-01 -3.59227941e-01 0.0
2.52641946e-01 -3.59227941e-01 0.0
2.25956256e-01 -2.96860301e-01 0.0
4.02481254e-01 -4.02481254e-01 0.0
-3.02377328e-01 -2.85801832e-01 0.0
-2.96860273e-01 -2.25956149e-01 0.0
-2.45104052e-01 -2.45104052e-01 0.0
-6.74764540e-02 -3.95976390e-01 0.0
6.79898647e-02 -4.00643544e-01 0.0
2.45221383e-01 -2.45221383e-01 0.0
2.96860301e-01 -2.25956256e-01 0.0
3.02377307e-01 -2.85801826e-01 0.0
-3.59227941e-01 -2.52641931e-01 0.0
-3.95976390e-01 -6.74764540e-02 0.0
-7.30889245e-02 -7.30889245e-02 0.0
4.44438534e-02 -4.44438534e-02 0.0
4.00643544e-01 -6.79898647e-02 0.0
3.59227941e-01 -2.52641946e-01 0.0
-3.59227941e-01 2.52641946e-01 0.0
-4.00643544e-01 6.79898647e-02 0.0
-4.44438534e-02 4.44438534e-02 0.0
7.30889245e-02 7.30889245e-02 0.0
3.95976390e-01 6.74764540e-02 0.0
3.59227941e-01 2.52641931e-01 0.0
-3.02377307e-01 2.85801826e-01 0.0
-2.96860301e-01 2.25956256e-01 0.0
-2.45221383e-01 2.45221383e-01 0.0
-6.79898647e-02 4.00643544e-01 0.0
6.74764540e-02 3.95976390e-01 0.0
2.45104052e-01 2.45104052e-01 0.0
2.96860273e-01 2.25956149e-01 0.0
3.02377328e-01 2.85801832e-01 0.0
-4.02481254e-01 4.02481254e-01 0.0
-2.25956256e-01 2.96860301e-01 0.0
-2.52641946e-01 3.59227941e-01 0.0
2.52641931e-01 3.59227941e-01 0.0
2.25956149e-01 2.96860273e-01 0.0
4.02481254e-01 4.02481254e-01 0.0
-4.23765688e-01 4.23765688e-01 0.0
-2.85801826e-01 3.02377307e-01 0.0
2.85801832e-01 3.02377328e-01 0.0
4.23765688e-01 4.23765688e-01 0.0
