# vtk DataFile Version 3.0
MPS Simulation Step 950
ASCII
DATASET UNSTRUCTURED_GRID
POINTS 56 double
-4.33689019e-02 -4.33689019e-02 0.0
-4.25990601e-02 -6.01033139e-02 0.0
-2.92220085e-02 -3.02209621e-02 0.0
2.92220073e-02 -3.02209630e-02 0.0
4.25990601e-02 -6.01033139e-02 0.0
4.33689019e-02 -4.33689019e-02 0.0
-6.01033139e-02 -4.25990601e-02 0.0
-4.13850922e-02 -4.13850922e-02 0.0
-2.16506978e-02 -3.10947560e-02 0.0
-2.30359193e-02 -3.68045191e-02 0.0
2.30359202e-02 -3.68045192e-02 0.0
2.16507023e-02 -3.10947595e-02 0.0
4.13850922e-02 -4.13850922e-02 0.0
6.01033139e-02 -4.25990601e-02 0.0
-3.02209621e-02 -2.92220085e-02 0.0
-3.10947560e-02 -2.16506978e-02 0.0
-2.26871593e-02 -2.26871593e-02 0.0
-4.91575428e-03 -3.18178112e-02 0.0
4.95253053e-03 -3.21266748e-02 0.0
2.26955622e-02 -2.26955622e-02 0.0
3.10947595e-02 -2.16507023e-02 0.0
3.02209630e-02 -2.92220073e-02 0.0
-3.68045191e-02 -2.30359193e-02 0.0
-3.18178112e-02 -4.91575428e-03 0.0
-5.80737432e-03 -5.80737432e-03 0.0
3.75224827e-03 -3.75224827e-03 0.0
3.21266748e-02 -4.95253053e-03 0.0
3.68045192e-02 -2.30359202e-02 0.0
-3.68045192e-02 2.30359202e-02 0.0
-3.21266748e-02 4.95253053e-03 0.0
-3.75224827e-03 3.75224827e-03 0.0
5.80737432e-03 5.80737432e-03 0.0
3.18178112e-02 4.91575428e-03 0.0
3.68045191e-02 2.30359193e-02 0.0
-3.02209630e-02 2.92220073e-02 0.0
-3.10947595e-02 2.16507023e-02 0.0
-2.26955622e-02 2.26955622e-02 0.0
-4.95253053e-03 3.21266748e-02 0.0
4.91575428e-03 3.18178112e-02 0.0
2.26871593e-02 2.26871593e-02 0.0
3.10947560e-02 2.16506978e-02 0.0
3.02209621e-02 2.92220085e-02 0.0
-6.01033139e-02 4.25990601e-02 0.0
-4.13850922e-02 4.13850922e-02 0.0
-2.16507023e-02 3.10947595e-02 0.0
-2.30359202e-02 3.68045192e-02 0.0
2.30359193e-02 3.68045191e-02 0.0
2.16506978e-02 3.10947560e-02 0.0
4.13850922e-02 4.13850922e-02 0.0
6.01033139e-02 4.25990601e-02 0.0
-4.33689019e-02 4.33689019e-02 0.0
-4.25990601e-02 6.01033139e-02 0.0
-2.92220073e-02 3.02209630e-02 0.0
2.92220085e-02 3.02209621e-02 0.0
4.25990601e-02 6.01033139e-02 0.0
4.33689019e-02 4.33689019e-02 0.0
CELLS 56 112
1 0
1 1
1 2
1 3
1 4
1 5
1 6
1 7
1 8
1 9
1 10
1 11
1 12
1 13
1 14
1 15
1 16
1 17
1 18
1 19
1 20
1 21
1 22
1 23
1 24
1 25
1 26
1 27
1 28
1 29
1 30
1 31
1 32
1 33
1 34
1 35
1 36
1 37
1 38
1 39
1 40
1 41
1 42
1 43
1 44
1 45
1 46
1 47
1 48
1 49
1 50
1 51
1 52
1 53
1 54
1 55
CELL_TYPES 56
1
1
1
1
1
1
1
1
1
1
1
1
1
1
1
1
1
1
1
1
1
1
1
1
1
1
1
1
1
1
1
1
1
1
1
1
1
1
1
1
1
1
1
1
1
1
1
1
1
1
1
1
1
1
1
1
POINT_DATA 56
SCALARS pressure double 1
LOOKUP_TABLE default
0.00000000e+00
0.00000000e+00
0.00000000e+00
0.00000000e+00
0.00000000e+00
0.00000000e+00
0.00000000e+00
0.00000000e+00
0.00000000e+00
0.00000000e+00
0.00000000e+00
0.00000000e+00
0.00000000e+00
0.00000000e+00
0.00000000e+00
0.00000000e+00
0.00000000e+00
0.00000000e+00
0.00000000e+00
0.00000000e+00
0.00000000e+00
0.00000000e+00
0.00000000e+00
0.00000000e+00
0.00000000e+00
0.00000000e+00
0.00000000e+00
0.00000000e+00
0.00000000e+00
0.00000000e+00
0.00000000e+00
0.00000000e+00
0.00000000e+00
0.00000000e+00
0.00000000e+00
0.00000000e+00
0.00000000e+00
0.00000000e+00
0.00000000e+00
0.00000000e+00
0.00000000e+00
0.00000000e+00
0.00000000e+00
0.00000000e+00
0.00000000e+00
0.00000000e+00
0.00000000e+00
0.00000000e+00
0.00000000e+00
0.00000000e+00
0.00000000e+00
0.00000000e+00
0.00000000e+00
0.00000000e+00
0.00000000e+00
0.00000000e+00
SCALARS type int 1
LOOKUP_TABLE default
0
0
0
0
0
0
0
0
0
0
0
0
0
0
0
0
0
0
0
0
0
0
0
0
0
0
0
0
0
0
0
0
0
0
0
0
0
0
0
0
0
0
0
0
0
0
0
0
0
0
0
0
0
0
0
0
VECTORS velocity double
-4.23790197e-01 -4.23790197e-01 0.0
-4.43288835e-01 -5.91269900e-01 0.0
-2.85755107e-01 -3.02424539e-01 0.0
2.85755102e-01 -3.02424518e-01 0.0
4.43288835e-01 -5.91269900e-01 0.0
4.23790197e-01 -4.23790197e-01 0.0
-5.91269900e-01 -4.43288835e-01 0.0
-4.02456745e-01 -4.02456745e-01 0.0
-2.25950897e-01 -2.96848998e-01 0.0
-2.52646738e-01 -3.59239175e-01 0.0
2.52646753e-01 -3.59239175e-01 0.0
2.25951004e-01 -2.96849025e-01 0.0
4.02456745e-01 -4.02456745e-01 0.0
5.91269900e-01 -4.43288835e-01 0.0
-3.02424539e-01 -2.85755107e-01 0.0
-2.96848998e-01 -2.25950897e-01 0.0
-2.45104052e-01 -2.45104052e-01 0.0
-6.74764540e-02 -3.95976390e-01 0.0
6.79898647e-02 -4.00643544e-01 0.0
2.45221383e-01 -2.45221383e-01 0.0
2.96849025e-01 -2.25951004e-01 0.0
3.02424518e-01 -2.85755102e-01 0.0
-3.59239175e-01 -2.52646738e-01 0.0
-3.95976390e-01 -6.74764540e-02 0.0
-7.30889245e-02 -7.30889245e-02 0.0
4.44438534e-02 -4.44438534e-02 0.0
4.00643544e-01 -6.79898647e-02 0.0
3.59239175e-01 -2.52646753e-01 0.0
-3.59239175e-01 2.52646753e-01 0.0
-4.00643544e-01 6.79898647e-02 0.0
-4.44438534e-02 4.44438534e-02 0.0
7.30889245e-02 7.30889245e-02 0.0
3.95976390e-01 6.74764540e-02 0.0
3.59239175e-01 2.52646738e-01 0.0
-3.02424518e-01 2.85755102e-01 0.0
-2.96849025e-01 2.25951004e-01 0.0
-2.45221383e-01 2.45221383e-01 0.0
-6.79898647e-02 4.00643544e-01 0.0
6.74764540e-02 3.95976390e-01 0.0
2.45104052e-01 2.45104052e-01 0.0
2.96848998e-01 2.25950897e-01 0.0
3.02424539e-01 2.85755107e-01 0.0
-5.91269900e-01 4.43288835e-01 0.0
-4.02456745e-01 4.02456745e-01 0.0
-2.25951004e-01 2.96849025e-01 0.0
-2.52646753e-01 3.59239175e-01 0.0
2.52646738e-01 3.59239175e-01 0.0
2.25950897e-01 2.96848998e-01 0.0
4.02456745e-01 4.02456745e-01 0.0
5.91269900e-01 4.43288835e-01 0.0
-4.23790197e-01 4.23790197e-01 0.0
-4.43288835e-01 5.91269900e-01 0.0
-2.85755102e-01 3.02424518e-01 0.0
2.85755107e-01 3.02424539e-01 0.0
4.43288835e-01 5.91269900e-01 0.0
4.23790197e-01 4.23790197e-01 0.0
