# vtk DataFile Version 3.0
MPS Simulation Step 700
ASCII
DATASET UNSTRUCTURED_GRID
POINTS 84 double
-5.25167943e-02 -5.25167943e-02 0.0
-1.78040495e-02 -5.93185997e-02 0.0
-6.55450113e-03 -6.60427302e-02 0.0
6.55450113e-03 -6.60427302e-02 0.0
1.78040495e-02 -5.93185997e-02 0.0
5.25167943e-02 -5.25167943e-02 0.0
-3.27734805e-02 -3.27734805e-02 0.0
-3.15168392e-02 -4.53215664e-02 0.0
-2.16850453e-02 -2.30532995e-02 0.0
-2.36316355e-02 -5.75358817e-02 0.0
2.36316355e-02 -5.75358817e-02 0.0
2.16850447e-02 -2.30533005e-02 0.0
3.15168392e-02 -4.53215664e-02 0.0
3.27734805e-02 -3.27734805e-02 0.0
-4.53215664e-02 -3.15168392e-02 0.0
-3.13243401e-02 -3.13243401e-02 0.0
-1.60022710e-02 -2.36739780e-02 0.0
-1.67195585e-02 -2.78230663e-02 0.0
1.67195591e-02 -2.78230664e-02 0.0
1.60022730e-02 -2.36739806e-02 0.0
3.13243401e-02 -3.13243401e-02 0.0
4.53215664e-02 -3.15168392e-02 0.0
-5.93185997e-02 -1.78040495e-02 0.0
-2.30532995e-02 -2.16850453e-02 0.0
-2.36739780e-02 -1.60022710e-02 0.0
-1.65595656e-02 -1.65595656e-02 0.0
-3.22881534e-03 -2.19184024e-02 0.0
3.25275633e-03 -2.21105852e-02 0.0
1.65650354e-02 -1.65650354e-02 0.0
2.36739806e-02 -1.60022730e-02 0.0
2.30533005e-02 -2.16850447e-02 0.0
5.93185997e-02 -1.78040495e-02 0.0
-6.60427302e-02 -6.55450113e-03 0.0
-5.75358817e-02 -2.36316355e-02 0.0
-2.78230663e-02 -1.67195585e-02 0.0
-2.19184024e-02 -3.22881534e-03 0.0
-3.98013088e-03 -3.98013088e-03 0.0
2.64113873e-03 -2.64113873e-03 0.0
2.21105852e-02 -3.25275633e-03 0.0
2.78230664e-02 -1.67195591e-02 0.0
5.75358817e-02 -2.36316355e-02 0.0
6.60427302e-02 -6.55450113e-03 0.0
-6.60427302e-02 6.55450113e-03 0.0
-5.75358817e-02 2.36316355e-02 0.0
-2.78230664e-02 1.67195591e-02 0.0
-2.21105852e-02 3.25275633e-03 0.0
-2.64113873e-03 2.64113873e-03 0.0
3.98013088e-03 3.98013088e-03 0.0
2.19184024e-02 3.22881534e-03 0.0
2.78230663e-02 1.67195585e-02 0.0
5.75358817e-02 2.36316355e-02 0.0
6.60427302e-02 6.55450113e-03 0.0
-5.93185997e-02 1.78040495e-02 0.0
-2.30533005e-02 2.16850447e-02 0.0
-2.36739806e-02 1.60022730e-02 0.0
-1.65650354e-02 1.65650354e-02 0.0
-3.25275633e-03 2.21105852e-02 0.0
3.22881534e-03 2.19184024e-02 0.0
1.65595656e-02 1.65595656e-02 0.0
2.36739780e-02 1.60022710e-02 0.0
2.30532995e-02 2.16850453e-02 0.0
5.93185997e-02 1.78040495e-02 0.0
-4.53215664e-02 3.15168392e-02 0.0
-3.13243401e-02 3.13243401e-02 0.0
-1.60022730e-02 2.36739806e-02 0.0
-1.67195591e-02 2.78230664e-02 0.0
1.67195585e-02 2.78230663e-02 0.0
1.60022710e-02 2.36739780e-02 0.0
3.13243401e-02 3.13243401e-02 0.0
4.53215664e-02 3.15168392e-02 0.0
-3.27734805e-02 3.27734805e-02 0.0
-3.15168392e-02 4.53215664e-02 0.0
-2.16850447e-02 2.30533005e-02 0.0
-2.36316355e-02 5.75358817e-02 0.0
2.36316355e-02 5.75358817e-02 0.0
2.16850453e-02 2.30532995e-02 0.0
3.15168392e-02 4.53215664e-02 0.0
3.27734805e-02 3.27734805e-02 0.0
-5.25167943e-02 5.25167943e-02 0.0
-1.78040495e-02 5.93185997e-02 0.0
-6.55450113e-03 6.60427302e-02 0.0
6.55450113e-03 6.60427302e-02 0.0
1.78040495e-02 5.93185997e-02 0.0
5.25167943e-02 5.25167943e-02 0.0
CELLS 84 168
1 0
1 1
1 2
1 3
1 4
1 5
1 6
1 7
1 8
1 9
1 10
1 11
1 12
1 13
1 14
1 15
1 16
1 17
1 18
1 19
1 20
1 21
1 22
1 23
1 24
1 25
1 26
1 27
1 28
1 29
1 30
1 31
1 32
1 33
1 34
1 35
1 36
1 37
1 38
1 39
1 40
1 41
1 42
1 43
1 44
1 45
1 46
1 47
1 48
1 49
1 50
1 51
1 52
1 53
1 54
1 55
1 56
1 57
1 58
1 59
1 60
1 61
1 62
1 63
1 64
1 65
1 66
1 67
1 68
1 69
1 70
1 71
1 72
1 73
1 74
1 75
1 76
1 77
1 78
1 79
1 80
1 81
1 82
1 83
CELL_TYPES 84
1
1
1
1
1
1
1
1
1
1
1
1
1
1
1
1
1
1
1
1
1
1
1
1
1
1
1
1
1
1
1
1
1
1
1
1
1
1
1
1
1
1
1
1
1
1
1
1
1
1
1
1
1
1
1
1
1
1
1
1
1
1
1
1
1
1
1
1
1
1
1
1
1
1
1
1
1
1
1
1
1
1
1
1
POINT_DATA 84
SCALARS pressure double 1
LOOKUP_TABLE default
0.00000000e+00
0.00000000e+00
0.00000000e+00
0.00000000e+00
0.00000000e+00
0.00000000e+00
0.00000000e+00
0.00000000e+00
0.00000000e+00
0.00000000e+00
0.00000000e+00
0.00000000e+00
0.00000000e+00
0.00000000e+00
0.00000000e+00
0.00000000e+00
0.00000000e+00
0.00000000e+00
0.00000000e+00
0.00000000e+00
0.00000000e+00
0.00000000e+00
0.00000000e+00
0.00000000e+00
0.00000000e+00
0.00000000e+00
0.00000000e+00
0.00000000e+00
0.00000000e+00
0.00000000e+00
0.00000000e+00
0.00000000e+00
0.00000000e+00
0.00000000e+00
0.00000000e+00
0.00000000e+00
0.00000000e+00
0.00000000e+00
0.00000000e+00
0.00000000e+00
0.00000000e+00
0.00000000e+00
0.00000000e+00
0.00000000e+00
0.00000000e+00
0.00000000e+00
0.00000000e+00
0.00000000e+00
0.00000000e+00
0.00000000e+00
0.00000000e+00
0.00000000e+00
0.00000000e+00
0.00000000e+00
0.00000000e+00
0.00000000e+00
0.00000000e+00
0.00000000e+00
0.00000000e+00
0.00000000e+00
0.00000000e+00
0.00000000e+00
0.00000000e+00
0.00000000e+00
0.00000000e+00
0.00000000e+00
0.00000000e+00
0.00000000e+00
0.00000000e+00
0.00000000e+00
0.00000000e+00
0.00000000e+00
0.00000000e+00
0.00000000e+00
0.00000000e+00
0.00000000e+00
0.00000000e+00
0.00000000e+00
0.00000000e+00
0.00000000e+00
0.00000000e+00
0.00000000e+00
0.00000000e+00
0.00000000e+00
SCALARS type int 1
LOOKUP_TABLE default
0
0
0
0
0
0
0
0
0
0
0
0
0
0
0
0
0
0
0
0
0
0
0
0
0
0
0
0
0
0
0
0
0
0
0
0
0
0
0
0
0
0
0
0
0
0
0
0
0
0
0
0
0
0
0
0
0
0
0
0
0
0
0
0
0
0
0
0
0
0
0
0
0
0
0
0
0
0
0
0
0
0
0
0
VECTORS velocity double
-6.32866138e-01 -6.32866138e-01 0.0
-2.30369237e-01 -7.76568922e-01 0.0
-8.82606736e-02 -8.55483546e-01 0.0
8.82606736e-02 -8.55483546e-01 0.0
2.30369237e-01 -7.76568922e-01 0.0
6.32866138e-01 -6.32866138e-01 0.0
-4.23848135e-01 -4.23848135e-01 0.0
-4.43288835e-01 -5.91269900e-01 0.0
-3.36294737e-01 -2.51900776e-01 0.0
-3.72201305e-01 -7.57532120e-01 0.0
3.72201305e-01 -7.57532120e-01 0.0
3.36294682e-01 -2.51900805e-01 0.0
4.43288835e-01 -5.91269900e-01 0.0
4.23848135e-01 -4.23848135e-01 0.0
-5.91269900e-01 -4.43288835e-01 0.0
-4.02398807e-01 -4.02398807e-01 0.0
-2.25911386e-01 -2.96810764e-01 0.0
-2.52662992e-01 -3.59286241e-01 0.0
2.52663007e-01 -3.59286241e-01 0.0
2.25911476e-01 -2.96810818e-01 0.0
4.02398807e-01 -4.02398807e-01 0.0
5.91269900e-01 -4.43288835e-01 0.0
-7.76568922e-01 -2.30369237e-01 0.0
-2.51900776e-01 -3.36294737e-01 0.0
-2.96810764e-01 -2.25911386e-01 0.0
-2.45102609e-01 -2.45102609e-01 0.0
-6.74842018e-02 -3.95976123e-01 0.0
6.79976125e-02 -4.00643811e-01 0.0
2.45219931e-01 -2.45219931e-01 0.0
2.96810818e-01 -2.25911476e-01 0.0
2.51900805e-01 -3.36294682e-01 0.0
7.76568922e-01 -2.30369237e-01 0.0
-8.55483546e-01 -8.82606736e-02 0.0
-7.57532120e-01 -3.72201305e-01 0.0
-3.59286241e-01 -2.52662992e-01 0.0
-3.95976123e-01 -6.74842018e-02 0.0
-7.30950863e-02 -7.30950863e-02 0.0
4.44482199e-02 -4.44482199e-02 0.0
4.00643811e-01 -6.79976125e-02 0.0
3.59286241e-01 -2.52663007e-01 0.0
7.57532120e-01 -3.72201305e-01 0.0
8.55483546e-01 -8.82606736e-02 0.0
-8.55483546e-01 8.82606736e-02 0.0
-7.57532120e-01 3.72201305e-01 0.0
-3.59286241e-01 2.52663007e-01 0.0
-4.00643811e-01 6.79976125e-02 0.0
-4.44482199e-02 4.44482199e-02 0.0
7.30950863e-02 7.30950863e-02 0.0
3.95976123e-01 6.74842018e-02 0.0
3.59286241e-01 2.52662992e-01 0.0
7.57532120e-01 3.72201305e-01 0.0
8.55483546e-01 8.82606736e-02 0.0
-7.76568922e-01 2.30369237e-01 0.0
-2.51900805e-01 3.36294682e-01 0.0
-2.96810818e-01 2.25911476e-01 0.0
-2.45219931e-01 2.45219931e-01 0.0
-6.79976125e-02 4.00643811e-01 0.0
6.74842018e-02 3.95976123e-01 0.0
2.45102609e-01 2.45102609e-01 0.0
2.96810764e-01 2.25911386e-01 0.0
2.51900776e-01 3.36294737e-01 0.0
7.76568922e-01 2.30369237e-01 0.0
-5.91269900e-01 4.43288835e-01 0.0
-4.02398807e-01 4.02398807e-01 0.0
-2.25911476e-01 2.96810818e-01 0.0
-2.52663007e-01 3.59286241e-01 0.0
2.52662992e-01 3.59286241e-01 0.0
2.25911386e-01 2.96810764e-01 0.0
4.02398807e-01 4.02398807e-01 0.0
5.91269900e-01 4.43288835e-01 0.0
-4.23848135e-01 4.23848135e-01 0.0
-4.43288835e-01 5.91269900e-01 0.0
-3.36294682e-01 2.51900805e-01 0.0
-3.72201305e-01 7.57532120e-01 0.0
3.72201305e-01 7.57532120e-01 0.0
3.36294737e-01 2.51900776e-01 0.0
4.43288835e-01 5.91269900e-01 0.0
4.23848135e-01 4.23848135e-01 0.0
-6.32866138e-01 6.32866138e-01 0.0
-2.30369237e-01 7.76568922e-01 0.0
-8.82606736e-02 8.55483546e-01 0.0
8.82606736e-02 8.55483546e-01 0.0
2.30369237e-01 7.76568922e-01 0.0
6.32866138e-01 6.32866138e-01 0.0
