# vtk DataFile Version 3.0
MPS Simulation Step 2550
ASCII
DATASET UNSTRUCTURED_GRID
POINTS 8 double
-6.19038076e-02 -6.19038076e-02 0.0
6.19309836e-02 -6.19309836e-02 0.0
-1.75016022e-02 -1.75016022e-02 0.0
1.08632648e-02 -1.08632648e-02 0.0
-1.08632648e-02 1.08632648e-02 0.0
1.75016022e-02 1.75016022e-02 0.0
-6.19309836e-02 6.19309836e-02 0.0
6.19038076e-02 6.19038076e-02 0.0
CELLS 8 16
1 0
1 1
1 2
1 3
1 4
1 5
1 6
1 7
CELL_TYPES 8
1
1
1
1
1
1
1
1
POINT_DATA 8
SCALARS pressure double 1
LOOKUP_TABLE default
0.00000000e+00
0.00000000e+00
0.00000000e+00
0.00000000e+00
0.00000000e+00
0.00000000e+00
0.00000000e+00
0.00000000e+00
SCALARS type int 1
LOOKUP_TABLE default
0
0
0
0
0
0
0
0
VECTORS velocity double
-2.45104052e-01 -2.45104052e-01 0.0
2.45221383e-01 -2.45221383e-01 0.0
-7.30889245e-02 -7.30889245e-02 0.0
4.44438534e-02 -4.44438534e-02 0.0
-4.44438534e-02 4.44438534e-02 0.0
7.30889245e-02 7.30889245e-02 0.0
-2.45221383e-01 2.45221383e-01 0.0
2.45104052e-01 2.45104052e-01 0.0
