# vtk DataFile Version 3.0
MPS 3D Simulation Step 900
ASCII
DATASET UNSTRUCTURED_GRID
POINTS 27960 double
-2.40000000e-02 -2.40000000e-02 -2.40000000e-02
-2.40000000e-02 -2.40000000e-02 -1.60000000e-02
-2.40000000e-02 -2.40000000e-02 -8.00000000e-03
-2.40000000e-02 -2.40000000e-02 0.00000000e+00
-2.40000000e-02 -2.40000000e-02 8.00000000e-03
-2.40000000e-02 -2.40000000e-02 1.60000000e-02
-2.40000000e-02 -2.40000000e-02 2.40000000e-02
-2.40000000e-02 -2.40000000e-02 3.20000000e-02
-2.40000000e-02 -2.40000000e-02 4.00000000e-02
-2.40000000e-02 -2.40000000e-02 4.80000000e-02
-2.40000000e-02 -1.60000000e-02 -2.40000000e-02
-2.40000000e-02 -1.60000000e-02 -1.60000000e-02
-2.40000000e-02 -1.60000000e-02 -8.00000000e-03
-2.40000000e-02 -1.60000000e-02 0.00000000e+00
-2.40000000e-02 -1.60000000e-02 8.00000000e-03
-2.40000000e-02 -1.60000000e-02 1.60000000e-02
-2.40000000e-02 -1.60000000e-02 2.40000000e-02
-2.40000000e-02 -1.60000000e-02 3.20000000e-02
-2.40000000e-02 -1.60000000e-02 4.00000000e-02
-2.40000000e-02 -1.60000000e-02 4.80000000e-02
-2.40000000e-02 -8.00000000e-03 -2.40000000e-02
-2.40000000e-02 -8.00000000e-03 -1.60000000e-02
-2.40000000e-02 -8.00000000e-03 -8.00000000e-03
-2.40000000e-02 -8.00000000e-03 0.00000000e+00
-2.40000000e-02 -8.00000000e-03 8.00000000e-03
-2.40000000e-02 -8.00000000e-03 1.60000000e-02
-2.40000000e-02 -8.00000000e-03 2.40000000e-02
-2.40000000e-02 -8.00000000e-03 3.20000000e-02
-2.40000000e-02 -8.00000000e-03 4.00000000e-02
-2.40000000e-02 -8.00000000e-03 4.80000000e-02
-2.40000000e-02 0.00000000e+00 -2.40000000e-02
-2.40000000e-02 0.00000000e+00 -1.60000000e-02
-2.40000000e-02 0.00000000e+00 -8.00000000e-03
-2.40000000e-02 0.00000000e+00 0.00000000e+00
-2.40000000e-02 0.00000000e+00 8.00000000e-03
-2.40000000e-02 0.00000000e+00 1.60000000e-02
-2.40000000e-02 0.00000000e+00 2.40000000e-02
-2.40000000e-02 0.00000000e+00 3.20000000e-02
-2.40000000e-02 0.00000000e+00 4.00000000e-02
-2.40000000e-02 0.00000000e+00 4.80000000e-02
-2.40000000e-02 8.00000000e-03 -2.40000000e-02
-2.40000000e-02 8.00000000e-03 -1.60000000e-02
-2.40000000e-02 8.00000000e-03 -8.00000000e-03
-2.40000000e-02 8.00000000e-03 0.00000000e+00
-2.40000000e-02 8.00000000e-03 8.00000000e-03
-2.40000000e-02 8.00000000e-03 1.60000000e-02
-2.40000000e-02 8.00000000e-03 2.40000000e-02
-2.40000000e-02 8.00000000e-03 3.20000000e-02
-2.40000000e-02 8.00000000e-03 4.00000000e-02
-2.40000000e-02 8.00000000e-03 4.80000000e-02
-2.40000000e-02 1.60000000e-02 -2.40000000e-02
-2.40000000e-02 1.60000000e-02 -1.60000000e-02
-2.40000000e-02 1.60000000e-02 -8.00000000e-03
-2.40000000e-02 1.60000000e-02 0.00000000e+00
-2.40000000e-02 1.60000000e-02 8.00000000e-03
-2.40000000e-02 1.60000000e-02 1.60000000e-02
-2.40000000e-02 1.60000000e-02 2.40000000e-02
-2.40000000e-02 1.60000000e-02 3.20000000e-02
-2.40000000e-02 1.60000000e-02 4.00000000e-02
-2.40000000e-02 1.60000000e-02 4.80000000e-02
-2.40000000e-02 2.40000000e-02 -2.40000000e-02
-2.40000000e-02 2.40000000e-02 -1.60000000e-02
-2.40000000e-02 2.40000000e-02 -8.00000000e-03
-2.40000000e-02 2.40000000e-02 0.00000000e+00
-2.40000000e-02 2.40000000e-02 8.00000000e-03
-2.40000000e-02 2.40000000e-02 1.60000000e-02
-2.40000000e-02 2.40000000e-02 2.40000000e-02
-2.40000000e-02 2.40000000e-02 3.20000000e-02
-2.40000000e-02 2.40000000e-02 4.00000000e-02
-2.40000000e-02 2.40000000e-02 4.80000000e-02
-2.40000000e-02 3.20000000e-02 -2.40000000e-02
-2.40000000e-02 3.20000000e-02 -1.60000000e-02
-2.40000000e-02 3.20000000e-02 -8.00000000e-03
-2.40000000e-02 3.20000000e-02 0.00000000e+00
-2.40000000e-02 3.20000000e-02 8.00000000e-03
-2.40000000e-02 3.20000000e-02 1.60000000e-02
-2.40000000e-02 3.20000000e-02 2.40000000e-02
-2.40000000e-02 3.20000000e-02 3.20000000e-02
-2.40000000e-02 3.20000000e-02 4.00000000e-02
-2.40000000e-02 3.20000000e-02 4.80000000e-02
-2.40000000e-02 4.00000000e-02 -2.40000000e-02
-2.40000000e-02 4.00000000e-02 -1.60000000e-02
-2.40000000e-02 4.00000000e-02 -8.00000000e-03
-2.40000000e-02 4.00000000e-02 0.00000000e+00
-2.40000000e-02 4.00000000e-02 8.00000000e-03
-2.40000000e-02 4.00000000e-02 1.60000000e-02
-2.40000000e-02 4.00000000e-02 2.40000000e-02
-2.40000000e-02 4.00000000e-02 3.20000000e-02
-2.40000000e-02 4.00000000e-02 4.00000000e-02
-2.40000000e-02 4.00000000e-02 4.80000000e-02
-2.40000000e-02 4.80000000e-02 -2.40000000e-02
-2.40000000e-02 4.80000000e-02 -1.60000000e-02
-2.40000000e-02 4.80000000e-02 -8.00000000e-03
-2.40000000e-02 4.80000000e-02 0.00000000e+00
-2.40000000e-02 4.80000000e-02 8.00000000e-03
-2.40000000e-02 4.80000000e-02 1.60000000e-02
-2.40000000e-02 4.80000000e-02 2.40000000e-02
-2.40000000e-02 4.80000000e-02 3.20000000e-02
-2.40000000e-02 4.80000000e-02 4.00000000e-02
-2.40000000e-02 4.80000000e-02 4.80000000e-02
-2.40000000e-02 5.60000000e-02 -2.40000000e-02
-2.40000000e-02 5.60000000e-02 -1.60000000e-02
-2.40000000e-02 5.60000000e-02 -8.00000000e-03
-2.40000000e-02 5.60000000e-02 0.00000000e+00
-2.40000000e-02 5.60000000e-02 8.00000000e-03
-2.40000000e-02 5.60000000e-02 1.60000000e-02
-2.40000000e-02 5.60000000e-02 2.40000000e-02
-2.40000000e-02 5.60000000e-02 3.20000000e-02
-2.40000000e-02 5.60000000e-02 4.00000000e-02
-2.40000000e-02 5.60000000e-02 4.80000000e-02
-2.40000000e-02 6.40000000e-02 -2.40000000e-02
-2.40000000e-02 6.40000000e-02 -1.60000000e-02
-2.40000000e-02 6.40000000e-02 -8.00000000e-03
-2.40000000e-02 6.40000000e-02 0.00000000e+00
-2.40000000e-02 6.40000000e-02 8.00000000e-03
-2.40000000e-02 6.40000000e-02 1.60000000e-02
-2.40000000e-02 6.40000000e-02 2.40000000e-02
-2.40000000e-02 6.40000000e-02 3.20000000e-02
-2.40000000e-02 6.40000000e-02 4.00000000e-02
-2.40000000e-02 6.40000000e-02 4.80000000e-02
-2.40000000e-02 7.20000000e-02 -2.40000000e-02
-2.40000000e-02 7.20000000e-02 -1.60000000e-02
-2.40000000e-02 7.20000000e-02 -8.00000000e-03
-2.40000000e-02 7.20000000e-02 0.00000000e+00
-2.40000000e-02 7.20000000e-02 8.00000000e-03
-2.40000000e-02 7.20000000e-02 1.60000000e-02
-2.40000000e-02 7.20000000e-02 2.40000000e-02
-2.40000000e-02 7.20000000e-02 3.20000000e-02
-2.40000000e-02 7.20000000e-02 4.00000000e-02
-2.40000000e-02 7.20000000e-02 4.80000000e-02
-2.40000000e-02 8.00000000e-02 -2.40000000e-02
-2.40000000e-02 8.00000000e-02 -1.60000000e-02
-2.40000000e-02 8.00000000e-02 -8.00000000e-03
-2.40000000e-02 8.00000000e-02 0.00000000e+00
-2.40000000e-02 8.00000000e-02 8.00000000e-03
-2.40000000e-02 8.00000000e-02 1.60000000e-02
-2.40000000e-02 8.00000000e-02 2.40000000e-02
-2.40000000e-02 8.00000000e-02 3.20000000e-02
-2.40000000e-02 8.00000000e-02 4.00000000e-02
-2.40000000e-02 8.00000000e-02 4.80000000e-02
-2.40000000e-02 8.80000000e-02 -2.40000000e-02
-2.40000000e-02 8.80000000e-02 -1.60000000e-02
-2.40000000e-02 8.80000000e-02 -8.00000000e-03
-2.40000000e-02 8.80000000e-02 0.00000000e+00
-2.40000000e-02 8.80000000e-02 8.00000000e-03
-2.40000000e-02 8.80000000e-02 1.60000000e-02
-2.40000000e-02 8.80000000e-02 2.40000000e-02
-2.40000000e-02 8.80000000e-02 3.20000000e-02
-2.40000000e-02 8.80000000e-02 4.00000000e-02
-2.40000000e-02 8.80000000e-02 4.80000000e-02
-2.40000000e-02 9.60000000e-02 -2.40000000e-02
-2.40000000e-02 9.60000000e-02 -1.60000000e-02
-2.40000000e-02 9.60000000e-02 -8.00000000e-03
-2.40000000e-02 9.60000000e-02 0.00000000e+00
-2.40000000e-02 9.60000000e-02 8.00000000e-03
-2.40000000e-02 9.60000000e-02 1.60000000e-02
-2.40000000e-02 9.60000000e-02 2.40000000e-02
-2.40000000e-02 9.60000000e-02 3.20000000e-02
-2.40000000e-02 9.60000000e-02 4.00000000e-02
-2.40000000e-02 9.60000000e-02 4.80000000e-02
-2.40000000e-02 1.04000000e-01 -2.40000000e-02
-2.40000000e-02 1.04000000e-01 -1.60000000e-02
-2.40000000e-02 1.04000000e-01 -8.00000000e-03
-2.40000000e-02 1.04000000e-01 0.00000000e+00
-2.40000000e-02 1.04000000e-01 8.00000000e-03
-2.40000000e-02 1.04000000e-01 1.60000000e-02
-2.40000000e-02 1.04000000e-01 2.40000000e-02
-2.40000000e-02 1.04000000e-01 3.20000000e-02
-2.40000000e-02 1.04000000e-01 4.00000000e-02
-2.40000000e-02 1.04000000e-01 4.80000000e-02
-2.40000000e-02 1.12000000e-01 -2.40000000e-02
-2.40000000e-02 1.12000000e-01 -1.60000000e-02
-2.40000000e-02 1.12000000e-01 -8.00000000e-03
-2.40000000e-02 1.12000000e-01 0.00000000e+00
-2.40000000e-02 1.12000000e-01 8.00000000e-03
-2.40000000e-02 1.12000000e-01 1.60000000e-02
-2.40000000e-02 1.12000000e-01 2.40000000e-02
-2.40000000e-02 1.12000000e-01 3.20000000e-02
-2.40000000e-02 1.12000000e-01 4.00000000e-02
-2.40000000e-02 1.12000000e-01 4.80000000e-02
-2.40000000e-02 1.20000000e-01 -2.40000000e-02
-2.40000000e-02 1.20000000e-01 -1.60000000e-02
-2.40000000e-02 1.20000000e-01 -8.00000000e-03
-2.40000000e-02 1.20000000e-01 0.00000000e+00
-2.40000000e-02 1.20000000e-01 8.00000000e-03
-2.40000000e-02 1.20000000e-01 1.60000000e-02
-2.40000000e-02 1.20000000e-01 2.40000000e-02
-2.40000000e-02 1.20000000e-01 3.20000000e-02
-2.40000000e-02 1.20000000e-01 4.00000000e-02
-2.40000000e-02 1.20000000e-01 4.80000000e-02
-2.40000000e-02 1.28000000e-01 -2.40000000e-02
-2.40000000e-02 1.28000000e-01 -1.60000000e-02
-2.40000000e-02 1.28000000e-01 -8.00000000e-03
-2.40000000e-02 1.28000000e-01 0.00000000e+00
-2.40000000e-02 1.28000000e-01 8.00000000e-03
-2.40000000e-02 1.28000000e-01 1.60000000e-02
-2.40000000e-02 1.28000000e-01 2.40000000e-02
-2.40000000e-02 1.28000000e-01 3.20000000e-02
-2.40000000e-02 1.28000000e-01 4.00000000e-02
-2.40000000e-02 1.28000000e-01 4.80000000e-02
-2.40000000e-02 1.36000000e-01 -2.40000000e-02
-2.40000000e-02 1.36000000e-01 -1.60000000e-02
-2.40000000e-02 1.36000000e-01 -8.00000000e-03
-2.40000000e-02 1.36000000e-01 0.00000000e+00
-2.40000000e-02 1.36000000e-01 8.00000000e-03
-2.40000000e-02 1.36000000e-01 1.60000000e-02
-2.40000000e-02 1.36000000e-01 2.40000000e-02
-2.40000000e-02 1.36000000e-01 3.20000000e-02
-2.40000000e-02 1.36000000e-01 4.00000000e-02
-2.40000000e-02 1.36000000e-01 4.80000000e-02
-2.40000000e-02 1.44000000e-01 -2.40000000e-02
-2.40000000e-02 1.44000000e-01 -1.60000000e-02
-2.40000000e-02 1.44000000e-01 -8.00000000e-03
[...]
POINT_DATA 27960
SCALARS pressure double 1
LOOKUP_TABLE default
0.00000000e+00
0.00000000e+00
0.00000000e+00
0.00000000e+00
0.00000000e+00
0.00000000e+00
0.00000000e+00
0.00000000e+00
0.00000000e+00
0.00000000e+00
0.00000000e+00
0.00000000e+00
0.00000000e+00
0.00000000e+00
0.00000000e+00
0.00000000e+00
0.00000000e+00
0.00000000e+00
0.00000000e+00
0.00000000e+00
0.00000000e+00
0.00000000e+00
0.00000000e+00
0.00000000e+00
0.00000000e+00
0.00000000e+00
0.00000000e+00
0.00000000e+00
0.00000000e+00
0.00000000e+00
0.00000000e+00
0.00000000e+00
0.00000000e+00
0.00000000e+00
0.00000000e+00
0.00000000e+00
0.00000000e+00
0.00000000e+00
0.00000000e+00
0.00000000e+00
0.00000000e+00
0.00000000e+00
0.00000000e+00
0.00000000e+00
0.00000000e+00
0.00000000e+00
0.00000000e+00
0.00000000e+00
0.00000000e+00
0.00000000e+00
0.00000000e+00
0.00000000e+00
0.00000000e+00
0.00000000e+00
0.00000000e+00
0.00000000e+00
0.00000000e+00
0.00000000e+00
0.00000000e+00
0.00000000e+00
0.00000000e+00
0.00000000e+00
0.00000000e+00
0.00000000e+00
0.00000000e+00
0.00000000e+00
0.00000000e+00
0.00000000e+00
0.00000000e+00
0.00000000e+00
0.00000000e+00
0.00000000e+00
0.00000000e+00
0.00000000e+00
0.00000000e+00
0.00000000e+00
0.00000000e+00
0.00000000e+00
0.00000000e+00
0.00000000e+00
0.00000000e+00
0.00000000e+00
0.00000000e+00
0.00000000e+00
0.00000000e+00
0.00000000e+00
0.00000000e+00
0.00000000e+00
0.00000000e+00
0.00000000e+00
0.00000000e+00
0.00000000e+00
0.00000000e+00
0.00000000e+00
0.00000000e+00
0.00000000e+00
0.00000000e+00
0.00000000e+00
0.00000000e+00
0.00000000e+00
0.00000000e+00
0.00000000e+00
0.00000000e+00
0.00000000e+00
0.00000000e+00
0.00000000e+00
0.00000000e+00
0.00000000e+00
0.00000000e+00
0.00000000e+00
0.00000000e+00
0.00000000e+00
0.00000000e+00
0.00000000e+00
0.00000000e+00
0.00000000e+00
0.00000000e+00
0.00000000e+00
0.00000000e+00
0.00000000e+00
0.00000000e+00
0.00000000e+00
0.00000000e+00
0.00000000e+00
0.00000000e+00
0.00000000e+00
0.00000000e+00
0.00000000e+00
0.00000000e+00
0.00000000e+00
0.00000000e+00
0.00000000e+00
0.00000000e+00
0.00000000e+00
0.00000000e+00
0.00000000e+00
0.00000000e+00
0.00000000e+00
0.00000000e+00
0.00000000e+00
0.00000000e+00
0.00000000e+00
0.00000000e+00
0.00000000e+00
0.00000000e+00
0.00000000e+00
0.00000000e+00
0.00000000e+00
0.00000000e+00
0.00000000e+00
0.00000000e+00
0.00000000e+00
0.00000000e+00
0.00000000e+00
0.00000000e+00
0.00000000e+00
0.00000000e+00
0.00000000e+00
0.00000000e+00
0.00000000e+00
0.00000000e+00
0.00000000e+00
0.00000000e+00
0.00000000e+00
0.00000000e+00
0.00000000e+00
0.00000000e+00
0.00000000e+00
0.00000000e+00
0.00000000e+00
0.00000000e+00
0.00000000e+00
0.00000000e+00
0.00000000e+00
0.00000000e+00
0.00000000e+00
0.00000000e+00
0.00000000e+00
0.00000000e+00
0.00000000e+00
0.00000000e+00
0.00000000e+00
0.00000000e+00
0.00000000e+00
0.00000000e+00
0.00000000e+00
0.00000000e+00
0.00000000e+00
0.00000000e+00
0.00000000e+00
0.00000000e+00
0.00000000e+00
0.00000000e+00
0.00000000e+00
0.00000000e+00
0.00000000e+00
0.00000000e+00
0.00000000e+00
0.00000000e+00
0.00000000e+00
0.00000000e+00
0.00000000e+00
0.00000000e+00
0.00000000e+00
0.00000000e+00
0.00000000e+00
0.00000000e+00
0.00000000e+00
0.00000000e+00
0.00000000e+00
0.00000000e+00
0.00000000e+00
0.00000000e+00
0.00000000e+00
0.00000000e+00
0.00000000e+00
0.00000000e+00
0.00000000e+00
0.00000000e+00
0.00000000e+00
0.00000000e+00
0.00000000e+00
0.00000000e+00
0.00000000e+00
0.00000000e+00
0.00000000e+00
0.00000000e+00
0.00000000e+00
0.00000000e+00
0.00000000e+00
0.00000000e+00
0.00000000e+00
0.00000000e+00
0.00000000e+00
0.00000000e+00
0.00000000e+00
0.00000000e+00
0.00000000e+00
0.00000000e+00
0.00000000e+00
0.00000000e+00
0.00000000e+00
0.00000000e+00
0.00000000e+00
0.00000000e+00
0.00000000e+00
0.00000000e+00
0.00000000e+00
0.00000000e+00
0.00000000e+00
0.00000000e+00
0.00000000e+00
0.00000000e+00
0.00000000e+00
0.00000000e+00
0.00000000e+00
0.00000000e+00
0.00000000e+00
0.00000000e+00
0.00000000e+00
0.00000000e+00
0.00000000e+00
0.00000000e+00
0.00000000e+00
0.00000000e+00
0.00000000e+00
0.00000000e+00
0.00000000e+00
0.00000000e+00
0.00000000e+00
0.00000000e+00
0.00000000e+00
0.00000000e+00
0.00000000e+00
0.00000000e+00
0.00000000e+00
0.00000000e+00
0.00000000e+00
0.00000000e+00
0.00000000e+00
0.00000000e+00
0.00000000e+00
0.00000000e+00
0.00000000e+00
0.00000000e+00
0.00000000e+00
0.00000000e+00
0.00000000e+00
0.00000000e+00
0.00000000e+00
0.00000000e+00
0.00000000e+00
0.00000000e+00
0.00000000e+00
0.00000000e+00
0.00000000e+00
0.00000000e+00
0.00000000e+00
0.00000000e+00
0.00000000e+00
0.00000000e+00
0.00000000e+00
0.00000000e+00
0.00000000e+00
0.00000000e+00
0.00000000e+00
0.00000000e+00
0.00000000e+00
0.00000000e+00
0.00000000e+00
0.00000000e+00
0.00000000e+00
0.00000000e+00
0.00000000e+00
0.00000000e+00
0.00000000e+00
0.00000000e+00
0.00000000e+00
0.00000000e+00
0.00000000e+00
0.00000000e+00
0.00000000e+00
0.00000000e+00
0.00000000e+00
0.00000000e+00
0.00000000e+00
0.00000000e+00
0.00000000e+00
0.00000000e+00
0.00000000e+00
0.00000000e+00
0.00000000e+00
0.00000000e+00
0.00000000e+00
0.00000000e+00
0.00000000e+00
0.00000000e+00
0.00000000e+00
0.00000000e+00
0.00000000e+00
0.00000000e+00
0.00000000e+00
0.00000000e+00
0.00000000e+00
0.00000000e+00
0.00000000e+00
0.00000000e+00
0.00000000e+00
0.00000000e+00
0.00000000e+00
0.00000000e+00
0.00000000e+00
0.00000000e+00
0.00000000e+00
0.00000000e+00
0.00000000e+00
0.00000000e+00
0.00000000e+00
0.00000000e+00
0.00000000e+00
0.00000000e+00
0.00000000e+00
0.00000000e+00
0.00000000e+00
0.00000000e+00
0.00000000e+00
0.00000000e+00
0.00000000e+00
0.00000000e+00
0.00000000e+00
0.00000000e+00
0.00000000e+00
0.00000000e+00
0.00000000e+00
0.00000000e+00
0.00000000e+00
0.00000000e+00
0.00000000e+00
0.00000000e+00
0.00000000e+00
0.00000000e+00
0.00000000e+00
0.00000000e+00
0.00000000e+00
0.00000000e+00
0.00000000e+00
0.00000000e+00
0.00000000e+00
0.00000000e+00
0.00000000e+00
0.00000000e+00
0.00000000e+00
0.00000000e+00
0.00000000e+00
0.00000000e+00
0.00000000e+00
0.00000000e+00
0.00000000e+00
0.00000000e+00
0.00000000e+00
0.00000000e+00
0.00000000e+00
0.00000000e+00
0.00000000e+00
0.00000000e+00
0.00000000e+00
0.00000000e+00
0.00000000e+00
0.00000000e+00
0.00000000e+00
0.00000000e+00
0.00000000e+00
0.00000000e+00
0.00000000e+00
0.00000000e+00
0.00000000e+00
0.00000000e+00
0.00000000e+00
0.00000000e+00
0.00000000e+00
0.00000000e+00
0.00000000e+00
0.00000000e+00
0.00000000e+00
0.00000000e+00
0.00000000e+00
0.00000000e+00
0.00000000e+00
0.00000000e+00
0.00000000e+00
0.00000000e+00
0.00000000e+00
0.00000000e+00
0.00000000e+00
0.00000000e+00
0.00000000e+00
0.00000000e+00
0.00000000e+00
0.00000000e+00
0.00000000e+00
0.00000000e+00
0.00000000e+00
0.00000000e+00
0.00000000e+00
0.00000000e+00
0.00000000e+00
0.00000000e+00
0.00000000e+00
0.00000000e+00
0.00000000e+00
0.00000000e+00
0.00000000e+00
0.00000000e+00
0.00000000e+00
0.00000000e+00
0.00000000e+00
0.00000000e+00
0.00000000e+00
0.00000000e+00
0.00000000e+00
0.00000000e+00
0.00000000e+00
0.00000000e+00
0.00000000e+00
0.00000000e+00
0.00000000e+00
0.00000000e+00
0.00000000e+00
0.00000000e+00
0.00000000e+00
0.00000000e+00
0.00000000e+00
0.00000000e+00
0.00000000e+00
0.00000000e+00
0.00000000e+00
0.00000000e+00
0.00000000e+00
0.00000000e+00
0.00000000e+00
0.00000000e+00
0.00000000e+00
0.00000000e+00
0.00000000e+00
0.00000000e+00
0.00000000e+00
0.00000000e+00
0.00000000e+00
0.00000000e+00
0.00000000e+00
0.00000000e+00
0.00000000e+00
0.00000000e+00
0.00000000e+00
0.00000000e+00
0.00000000e+00
0.00000000e+00
0.00000000e+00
0.00000000e+00
0.00000000e+00
0.00000000e+00
0.00000000e+00
0.00000000e+00
0.00000000e+00
0.00000000e+00
0.00000000e+00
0.00000000e+00
0.00000000e+00
0.00000000e+00
0.00000000e+00
0.00000000e+00
0.00000000e+00
0.00000000e+00
0.00000000e+00
0.00000000e+00
0.00000000e+00
0.00000000e+00
0.00000000e+00
0.00000000e+00
0.00000000e+00
0.00000000e+00
0.00000000e+00
0.00000000e+00
0.00000000e+00
0.00000000e+00
0.00000000e+00
0.00000000e+00
0.00000000e+00
0.00000000e+00
0.00000000e+00
0.00000000e+00
0.00000000e+00
0.00000000e+00
0.00000000e+00
0.00000000e+00
0.00000000e+00
0.00000000e+00
0.00000000e+00
0.00000000e+00
0.00000000e+00
0.00000000e+00
0.00000000e+00
0.00000000e+00
0.00000000e+00
0.00000000e+00
0.00000000e+00
0.00000000e+00
0.00000000e+00
0.00000000e+00
0.00000000e+00
0.00000000e+00
0.00000000e+00
0.00000000e+00
0.00000000e+00
0.00000000e+00
0.00000000e+00
0.00000000e+00
0.00000000e+00
0.00000000e+00
0.00000000e+00
0.00000000e+00
0.00000000e+00
0.00000000e+00
0.00000000e+00
0.00000000e+00
0.00000000e+00
0.00000000e+00
0.00000000e+00
0.00000000e+00
0.00000000e+00
0.00000000e+00
0.00000000e+00
0.00000000e+00
0.00000000e+00
0.00000000e+00
0.00000000e+00
0.00000000e+00
0.00000000e+00
0.00000000e+00
0.00000000e+00
0.00000000e+00
0.00000000e+00
0.00000000e+00
0.00000000e+00
0.00000000e+00
0.00000000e+00
0.00000000e+00
0.00000000e+00
0.00000000e+00
0.00000000e+00
0.00000000e+00
0.00000000e+00
0.00000000e+00
0.00000000e+00
0.00000000e+00
0.00000000e+00
0.00000000e+00
0.00000000e+00
0.00000000e+00
0.00000000e+00
0.00000000e+00
0.00000000e+00
0.00000000e+00
0.00000000e+00
0.00000000e+00
0.00000000e+00
0.00000000e+00
0.00000000e+00
0.00000000e+00
0.00000000e+00
0.00000000e+00
0.00000000e+00
0.00000000e+00
0.00000000e+00
0.00000000e+00
0.00000000e+00
0.00000000e+00
0.00000000e+00
0.00000000e+00
0.00000000e+00
0.00000000e+00
0.00000000e+00
0.00000000e+00
0.00000000e+00
0.00000000e+00
0.00000000e+00
0.00000000e+00
0.00000000e+00
0.00000000e+00
0.00000000e+00
0.00000000e+00
0.00000000e+00
0.00000000e+00
0.00000000e+00
0.00000000e+00
0.00000000e+00
0.00000000e+00
0.00000000e+00
0.00000000e+00
0.00000000e+00
0.00000000e+00
0.00000000e+00
0.00000000e+00
0.00000000e+00
0.00000000e+00
0.00000000e+00
0.00000000e+00
0.00000000e+00
0.00000000e+00
0.00000000e+00
0.00000000e+00
0.00000000e+00
0.00000000e+00
0.00000000e+00
0.00000000e+00
0.00000000e+00
0.00000000e+00
0.00000000e+00
0.00000000e+00
0.00000000e+00
0.00000000e+00
0.00000000e+00
0.00000000e+00
0.00000000e+00
0.00000000e+00
0.00000000e+00
0.00000000e+00
0.00000000e+00
0.00000000e+00
0.00000000e+00
0.00000000e+00
0.00000000e+00
0.00000000e+00
0.00000000e+00
0.00000000e+00
0.00000000e+00
0.00000000e+00
0.00000000e+00
0.00000000e+00
0.00000000e+00
0.00000000e+00
0.00000000e+00
0.00000000e+00
0.00000000e+00
0.00000000e+00
0.00000000e+00
0.00000000e+00
0.00000000e+00
0.00000000e+00
0.00000000e+00
0.00000000e+00
0.00000000e+00
0.00000000e+00
0.00000000e+00
0.00000000e+00
0.00000000e+00
0.00000000e+00
0.00000000e+00
0.00000000e+00
0.00000000e+00
0.00000000e+00
0.00000000e+00
0.00000000e+00
0.00000000e+00
0.00000000e+00
0.00000000e+00
0.00000000e+00
0.00000000e+00
0.00000000e+00
0.00000000e+00
0.00000000e+00
0.00000000e+00
0.00000000e+00
0.00000000e+00
0.00000000e+00
0.00000000e+00
0.00000000e+00
0.00000000e+00
0.00000000e+00
0.00000000e+00
0.00000000e+00
0.00000000e+00
0.00000000e+00
0.00000000e+00
0.00000000e+00
0.00000000e+00
0.00000000e+00
0.00000000e+00
0.00000000e+00
0.00000000e+00
0.00000000e+00
0.00000000e+00
0.00000000e+00
0.00000000e+00
0.00000000e+00
0.00000000e+00
0.00000000e+00
0.00000000e+00
0.00000000e+00
0.00000000e+00
0.00000000e+00
0.00000000e+00
0.00000000e+00
0.00000000e+00
0.00000000e+00
0.00000000e+00
0.00000000e+00
0.00000000e+00
0.00000000e+00
0.00000000e+00
0.00000000e+00
0.00000000e+00
0.00000000e+00
0.00000000e+00
0.00000000e+00
0.00000000e+00
0.00000000e+00
0.00000000e+00
0.00000000e+00
0.00000000e+00
0.00000000e+00
0.00000000e+00
0.00000000e+00
0.00000000e+00
0.00000000e+00
0.00000000e+00
0.00000000e+00
0.00000000e+00
0.00000000e+00
0.00000000e+00
0.00000000e+00
0.00000000e+00
0.00000000e+00
0.00000000e+00
0.00000000e+00
0.00000000e+00
0.00000000e+00
0.00000000e+00
0.00000000e+00
0.00000000e+00
0.00000000e+00
0.00000000e+00
0.00000000e+00
0.00000000e+00
0.00000000e+00
0.00000000e+00
0.00000000e+00
0.00000000e+00
0.00000000e+00
0.00000000e+00
0.00000000e+00
0.00000000e+00
0.00000000e+00
0.00000000e+00
0.00000000e+00
0.00000000e+00
0.00000000e+00
0.00000000e+00
0.00000000e+00
0.00000000e+00
0.00000000e+00
0.00000000e+00
0.00000000e+00
0.00000000e+00
0.00000000e+00
0.00000000e+00
0.00000000e+00
0.00000000e+00
0.00000000e+00
0.00000000e+00
0.00000000e+00
0.00000000e+00
0.00000000e+00
0.00000000e+00
0.00000000e+00
0.00000000e+00
0.00000000e+00
0.00000000e+00
0.00000000e+00
0.00000000e+00
0.00000000e+00
0.00000000e+00
-7.68115009e+03
-7.56955882e+03
-7.06295018e+03
-6.15629509e+03
-5.85947640e+03
-5.80314269e+03
0.00000000e+00
0.00000000e+00
0.00000000e+00
0.00000000e+00
-7.06236215e+03
-6.69094569e+03
-6.05836784e+03
-5.56378142e+03
-5.51799808e+03
-5.45760478e+03
0.00000000e+00
0.00000000e+00
0.00000000e+00
0.00000000e+00
-5.85329146e+03
-5.53331512e+03
-4.98495059e+03
-4.82234462e+03
-4.91910186e+03
-4.88172338e+03
0.00000000e+00
0.00000000e+00
0.00000000e+00
0.00000000e+00
-4.33544041e+03
-4.15406710e+03
-3.84005892e+03
-3.78738168e+03
-3.87260083e+03
-3.91065812e+03
0.00000000e+00
0.00000000e+00
0.00000000e+00
0.00000000e+00
-2.90092386e+03
-2.82069930e+03
-2.73099377e+03
-2.70045669e+03
-2.76877486e+03
-2.82845605e+03
0.00000000e+00
0.00000000e+00
0.00000000e+00
0.00000000e+00
-1.98418470e+03
-1.94138317e+03
-1.87711899e+03
-1.86585298e+03
-1.95877287e+03
-2.01249740e+03
0.00000000e+00
0.00000000e+00
0.00000000e+00
0.00000000e+00
-1.51500264e+03
-1.47694564e+03
-1.40382934e+03
-1.38819181e+03
-1.43723788e+03
-1.46707688e+03
0.00000000e+00
0.00000000e+00
0.00000000e+00
0.00000000e+00
-1.15247421e+03
-1.12931450e+03
-1.10394204e+03
-1.10450824e+03
-1.11845120e+03
-1.13047632e+03
0.00000000e+00
0.00000000e+00
0.00000000e+00
0.00000000e+00
-9.01896304e+02
-8.88184938e+02
-8.85057203e+02
-8.96365122e+02
-9.00727708e+02
-9.02266188e+02
0.00000000e+00
0.00000000e+00
0.00000000e+00
0.00000000e+00
-7.37456315e+02
-7.46586901e+02
-7.52473234e+02
-7.48852738e+02
-7.40630788e+02
-7.36147056e+02
0.00000000e+00
0.00000000e+00
0.00000000e+00
0.00000000e+00
-6.12734345e+02
-6.36012096e+02
-6.46253159e+02
-6.30835198e+02
-6.15808570e+02
-6.08626295e+02
0.00000000e+00
0.00000000e+00
0.00000000e+00
0.00000000e+00
-4.96522908e+02
-5.16866770e+02
-5.30080020e+02
-5.24806144e+02
-5.13831079e+02
-5.06443851e+02
0.00000000e+00
0.00000000e+00
0.00000000e+00
0.00000000e+00
-4.07881937e+02
-4.27482133e+02
-4.40459614e+02
-4.41027585e+02
-4.32705987e+02
-4.26158583e+02
0.00000000e+00
0.00000000e+00
0.00000000e+00
0.00000000e+00
-3.58869629e+02
-3.70323795e+02
-3.78766850e+02
-3.78514598e+02
-3.71612164e+02
-3.66362152e+02
0.00000000e+00
0.00000000e+00
0.00000000e+00
0.00000000e+00
-3.28632343e+02
-3.32260349e+02
-3.35394707e+02
-3.33061334e+02
-3.26739122e+02
-3.22516686e+02
0.00000000e+00
0.00000000e+00
0.00000000e+00
0.00000000e+00
-3.02907154e+02
-3.03821341e+02
-3.03625343e+02
-2.99763157e+02
-2.93736096e+02
-2.90116998e+02
0.00000000e+00
0.00000000e+00
0.00000000e+00
0.00000000e+00
-2.81273860e+02
-2.81074417e+02
-2.79387611e+02
-2.74938082e+02
-2.69346993e+02
-2.66191527e+02
0.00000000e+00
0.00000000e+00
0.00000000e+00
0.00000000e+00
-2.63202788e+02
-2.62586730e+02
-2.60420906e+02
-2.56093212e+02
-2.51176958e+02
-2.48493126e+02
0.00000000e+00
0.00000000e+00
0.00000000e+00
0.00000000e+00
-2.48175677e+02
-2.47456731e+02
-2.45318233e+02
-2.41488773e+02
-2.37367788e+02
-2.35160271e+02
0.00000000e+00
0.00000000e+00
0.00000000e+00
0.00000000e+00
-2.35668234e+02
-2.34987539e+02
-2.33095531e+02
-2.29889186e+02
-2.26545532e+02
-2.24775036e+02
0.00000000e+00
0.00000000e+00
0.00000000e+00
0.00000000e+00
-2.25207525e+02
-2.24620057e+02
-2.23040011e+02
-2.20439434e+02
-2.17775914e+02
-2.16375363e+02
0.00000000e+00
0.00000000e+00
0.00000000e+00
0.00000000e+00
-2.16394600e+02
-2.15912871e+02
-2.14636416e+02
-2.12563527e+02
-2.10458905e+02
-2.09356144e+02
0.00000000e+00
0.00000000e+00
0.00000000e+00
0.00000000e+00
-2.08907549e+02
-2.08524975e+02
-2.07514266e+02
-2.05876056e+02
-2.04215303e+02
-2.03345713e+02
0.00000000e+00
0.00000000e+00
0.00000000e+00
0.00000000e+00
-2.02494115e+02
-2.02197113e+02
-2.01407073e+02
-2.00116475e+02
-1.98802122e+02
-1.98112666e+02
0.00000000e+00
0.00000000e+00
0.00000000e+00
0.00000000e+00
-1.96960184e+02
-1.96733958e+02
-1.96122105e+02
-1.95105261e+02
-1.94059135e+02
-1.93508130e+02
0.00000000e+00
0.00000000e+00
0.00000000e+00
0.00000000e+00
-1.92157872e+02
-1.91988865e+02
-1.91518785e+02
-1.90716003e+02
-1.89877110e+02
-1.89432486e+02
0.00000000e+00
0.00000000e+00
0.00000000e+00
0.00000000e+00
-1.87974987e+02
-1.87851675e+02
-1.87493574e+02
-1.86857780e+02
-1.86179144e+02
-1.85816447e+02
0.00000000e+00
0.00000000e+00
0.00000000e+00
0.00000000e+00
-1.84326428e+02
-1.84239378e+02
-1.83969442e+02
-1.83463936e+02
-1.82909538e+02
-1.82610156e+02
0.00000000e+00
0.00000000e+00
0.00000000e+00
0.00000000e+00
-1.81147492e+02
-1.81089121e+02
-1.80888522e+02
-1.80484791e+02
-1.80026986e+02
-1.79776713e+02
0.00000000e+00
0.00000000e+00
0.00000000e+00
0.00000000e+00
-1.78388806e+02
-1.78353068e+02
-1.78206958e+02
-1.77882811e+02
-1.77500276e+02
-1.77288203e+02
0.00000000e+00
0.00000000e+00
0.00000000e+00
0.00000000e+00
-1.76012557e+02
-1.75994630e+02
-1.75891271e+02
-1.75629337e+02
-1.75305494e+02
-1.75123166e+02
0.00000000e+00
0.00000000e+00
0.00000000e+00
0.00000000e+00
-1.73989713e+02
-1.73985733e+02
-1.73915782e+02
-1.73702332e+02
-1.73424146e+02
-1.73264935e+02
0.00000000e+00
0.00000000e+00
0.00000000e+00
0.00000000e+00
-1.72297984e+02
-1.72304829e+02
-1.72260762e+02
-1.72084808e+02
-1.71841885e+02
-1.71700514e+02
0.00000000e+00
0.00000000e+00
0.00000000e+00
0.00000000e+00
-1.70920344e+02
-1.70935454e+02
-1.70911127e+02
-1.70763718e+02
-1.70547614e+02
-1.70419801e+02
0.00000000e+00
0.00000000e+00
0.00000000e+00
0.00000000e+00
-1.69843955e+02
-1.69865198e+02
-1.69855492e+02
-1.69729182e+02
-1.69532868e+02
-1.69415053e+02
0.00000000e+00
0.00000000e+00
0.00000000e+00
0.00000000e+00
-1.69059398e+02
-1.69084965e+02
-1.69085533e+02
-1.68973953e+02
-1.68791385e+02
-1.68680499e+02
0.00000000e+00
0.00000000e+00
0.00000000e+00
0.00000000e+00
-1.68560291e+02
-1.68588501e+02
-1.68595653e+02
-1.68493183e+02
-1.68318858e+02
-1.68212240e+02
0.00000000e+00
0.00000000e+00
0.00000000e+00
0.00000000e+00
-1.68339094e+02
-1.68369345e+02
-1.68380334e+02
-1.68281966e+02
-1.68110219e+02
-1.68004464e+02
0.00000000e+00
0.00000000e+00
0.00000000e+00
0.00000000e+00
0.00000000e+00
0.00000000e+00
0.00000000e+00
0.00000000e+00
0.00000000e+00
0.00000000e+00
0.00000000e+00
0.00000000e+00
0.00000000e+00
0.00000000e+00
0.00000000e+00
0.00000000e+00
0.00000000e+00
0.00000000e+00
0.00000000e+00
0.00000000e+00
0.00000000e+00
0.00000000e+00
0.00000000e+00
0.00000000e+00
-7.42445061e+03
-7.16332542e+03
-6.64723939e+03
-6.14561000e+03
-6.07807336e+03
-6.18451164e+03
0.00000000e+00
0.00000000e+00
0.00000000e+00
0.00000000e+00
-6.87792653e+03
-6.50471998e+03
-6.05648976e+03
-5.74893884e+03
-5.71091226e+03
-5.68682734e+03
0.00000000e+00
0.00000000e+00
0.00000000e+00
0.00000000e+00
-5.57567482e+03
-5.37025466e+03
-5.00693637e+03
-4.87441540e+03
-4.96277260e+03
-4.86780058e+03
0.00000000e+00
0.00000000e+00
0.00000000e+00
0.00000000e+00
-4.19515782e+03
-4.02636971e+03
-3.57377224e+03
-3.50786155e+03
-3.74687131e+03
-3.82177458e+03
0.00000000e+00
0.00000000e+00
0.00000000e+00
0.00000000e+00
-2.90590231e+03
-2.77259808e+03
-2.40023772e+03
-2.34059339e+03
-2.57487554e+03
-2.68243239e+03
0.00000000e+00
0.00000000e+00
0.00000000e+00
0.00000000e+00
-1.97078347e+03
-1.85450218e+03
-1.59426798e+03
-1.54446313e+03
-1.74605902e+03
-1.84345271e+03
0.00000000e+00
0.00000000e+00
0.00000000e+00
0.00000000e+00
-1.42985969e+03
-1.37722080e+03
-1.25624631e+03
-1.22736684e+03
-1.30762328e+03
-1.34198082e+03
0.00000000e+00
0.00000000e+00
0.00000000e+00
0.00000000e+00
-1.08220355e+03
-1.06428307e+03
-1.03874061e+03
-1.03633229e+03
-1.05722102e+03
-1.06532386e+03
0.00000000e+00
0.00000000e+00
0.00000000e+00
0.00000000e+00
-8.49325726e+02
-8.44583124e+02
-8.45996611e+02
-8.57388526e+02
-8.58381282e+02
-8.56006918e+02
0.00000000e+00
0.00000000e+00