# vtk DataFile Version 3.0
MPS 3D Simulation Step 3500
ASCII
DATASET UNSTRUCTURED_GRID
POINTS 27408 double
-2.40000000e-02 -2.40000000e-02 -2.40000000e-02
-2.40000000e-02 -2.40000000e-02 -1.60000000e-02
-2.40000000e-02 -2.40000000e-02 -8.00000000e-03
-2.40000000e-02 -2.40000000e-02 0.00000000e+00
-2.40000000e-02 -2.40000000e-02 8.00000000e-03
-2.40000000e-02 -2.40000000e-02 1.60000000e-02
-2.40000000e-02 -2.40000000e-02 2.40000000e-02
-2.40000000e-02 -2.40000000e-02 3.20000000e-02
-2.40000000e-02 -2.40000000e-02 4.00000000e-02
-2.40000000e-02 -2.40000000e-02 4.80000000e-02
-2.40000000e-02 -1.60000000e-02 -2.40000000e-02
-2.40000000e-02 -1.60000000e-02 -1.60000000e-02
-2.40000000e-02 -1.60000000e-02 -8.00000000e-03
-2.40000000e-02 -1.60000000e-02 0.00000000e+00
-2.40000000e-02 -1.60000000e-02 8.00000000e-03
-2.40000000e-02 -1.60000000e-02 1.60000000e-02
-2.40000000e-02 -1.60000000e-02 2.40000000e-02
-2.40000000e-02 -1.60000000e-02 3.20000000e-02
-2.40000000e-02 -1.60000000e-02 4.00000000e-02
-2.40000000e-02 -1.60000000e-02 4.80000000e-02
-2.40000000e-02 -8.00000000e-03 -2.40000000e-02
-2.40000000e-02 -8.00000000e-03 -1.60000000e-02
-2.40000000e-02 -8.00000000e-03 -8.00000000e-03
-2.40000000e-02 -8.00000000e-03 0.00000000e+00
-2.40000000e-02 -8.00000000e-03 8.00000000e-03
-2.40000000e-02 -8.00000000e-03 1.60000000e-02
-2.40000000e-02 -8.00000000e-03 2.40000000e-02
-2.40000000e-02 -8.00000000e-03 3.20000000e-02
-2.40000000e-02 -8.00000000e-03 4.00000000e-02
-2.40000000e-02 -8.00000000e-03 4.80000000e-02
-2.40000000e-02 0.00000000e+00 -2.40000000e-02
-2.40000000e-02 0.00000000e+00 -1.60000000e-02
-2.40000000e-02 0.00000000e+00 -8.00000000e-03
-2.40000000e-02 0.00000000e+00 0.00000000e+00
-2.40000000e-02 0.00000000e+00 8.00000000e-03
-2.40000000e-02 0.00000000e+00 1.60000000e-02
-2.40000000e-02 0.00000000e+00 2.40000000e-02
-2.40000000e-02 0.00000000e+00 3.20000000e-02
-2.40000000e-02 0.00000000e+00 4.00000000e-02
-2.40000000e-02 0.00000000e+00 4.80000000e-02
-2.40000000e-02 8.00000000e-03 -2.40000000e-02
-2.40000000e-02 8.00000000e-03 -1.60000000e-02
-2.40000000e-02 8.00000000e-03 -8.00000000e-03
-2.40000000e-02 8.00000000e-03 0.00000000e+00
-2.40000000e-02 8.00000000e-03 8.00000000e-03
-2.40000000e-02 8.00000000e-03 1.60000000e-02
-2.40000000e-02 8.00000000e-03 2.40000000e-02
-2.40000000e-02 8.00000000e-03 3.20000000e-02
-2.40000000e-02 8.00000000e-03 4.00000000e-02
-2.40000000e-02 8.00000000e-03 4.80000000e-02
-2.40000000e-02 1.60000000e-02 -2.40000000e-02
-2.40000000e-02 1.60000000e-02 -1.60000000e-02
-2.40000000e-02 1.60000000e-02 -8.00000000e-03
-2.40000000e-02 1.60000000e-02 0.00000000e+00
-2.40000000e-02 1.60000000e-02 8.00000000e-03
-2.40000000e-02 1.60000000e-02 1.60000000e-02
-2.40000000e-02 1.60000000e-02 2.40000000e-02
-2.40000000e-02 1.60000000e-02 3.20000000e-02
-2.40000000e-02 1.60000000e-02 4.00000000e-02
-2.40000000e-02 1.60000000e-02 4.80000000e-02
-2.40000000e-02 2.40000000e-02 -2.40000000e-02
-2.40000000e-02 2.40000000e-02 -1.60000000e-02
-2.40000000e-02 2.40000000e-02 -8.00000000e-03
-2.40000000e-02 2.40000000e-02 0.00000000e+00
-2.40000000e-02 2.40000000e-02 8.00000000e-03
-2.40000000e-02 2.40000000e-02 1.60000000e-02
-2.40000000e-02 2.40000000e-02 2.40000000e-02
-2.40000000e-02 2.40000000e-02 3.20000000e-02
-2.40000000e-02 2.40000000e-02 4.00000000e-02
-2.40000000e-02 2.40000000e-02 4.80000000e-02
-2.40000000e-02 3.20000000e-02 -2.40000000e-02
-2.40000000e-02 3.20000000e-02 -1.60000000e-02
-2.40000000e-02 3.20000000e-02 -8.00000000e-03
-2.40000000e-02 3.20000000e-02 0.00000000e+00
-2.40000000e-02 3.20000000e-02 8.00000000e-03
-2.40000000e-02 3.20000000e-02 1.60000000e-02
-2.40000000e-02 3.20000000e-02 2.40000000e-02
-2.40000000e-02 3.20000000e-02 3.20000000e-02
-2.40000000e-02 3.20000000e-02 4.00000000e-02
-2.40000000e-02 3.20000000e-02 4.80000000e-02
-2.40000000e-02 4.00000000e-02 -2.40000000e-02
-2.40000000e-02 4.00000000e-02 -1.60000000e-02
-2.40000000e-02 4.00000000e-02 -8.00000000e-03
-2.40000000e-02 4.00000000e-02 0.00000000e+00
-2.40000000e-02 4.00000000e-02 8.00000000e-03
-2.40000000e-02 4.00000000e-02 1.60000000e-02
-2.40000000e-02 4.00000000e-02 2.40000000e-02
-2.40000000e-02 4.00000000e-02 3.20000000e-02
-2.40000000e-02 4.00000000e-02 4.00000000e-02
-2.40000000e-02 4.00000000e-02 4.80000000e-02
-2.40000000e-02 4.80000000e-02 -2.40000000e-02
-2.40000000e-02 4.80000000e-02 -1.60000000e-02
-2.40000000e-02 4.80000000e-02 -8.00000000e-03
-2.40000000e-02 4.80000000e-02 0.00000000e+00
-2.40000000e-02 4.80000000e-02 8.00000000e-03
-2.40000000e-02 4.80000000e-02 1.60000000e-02
-2.40000000e-02 4.80000000e-02 2.40000000e-02
-2.40000000e-02 4.80000000e-02 3.20000000e-02
-2.40000000e-02 4.80000000e-02 4.00000000e-02
-2.40000000e-02 4.80000000e-02 4.80000000e-02
-2.40000000e-02 5.60000000e-02 -2.40000000e-02
-2.40000000e-02 5.60000000e-02 -1.60000000e-02
-2.40000000e-02 5.60000000e-02 -8.00000000e-03
-2.40000000e-02 5.60000000e-02 0.00000000e+00
-2.40000000e-02 5.60000000e-02 8.00000000e-03
-2.40000000e-02 5.60000000e-02 1.60000000e-02
-2.40000000e-02 5.60000000e-02 2.40000000e-02
-2.40000000e-02 5.60000000e-02 3.20000000e-02
-2.40000000e-02 5.60000000e-02 4.00000000e-02
-2.40000000e-02 5.60000000e-02 4.80000000e-02
-2.40000000e-02 6.40000000e-02 -2.40000000e-02
-2.40000000e-02 6.40000000e-02 -1.60000000e-02
-2.40000000e-02 6.40000000e-02 -8.00000000e-03
-2.40000000e-02 6.40000000e-02 0.00000000e+00
-2.40000000e-02 6.40000000e-02 8.00000000e-03
-2.40000000e-02 6.40000000e-02 1.60000000e-02
-2.40000000e-02 6.40000000e-02 2.40000000e-02
-2.40000000e-02 6.40000000e-02 3.20000000e-02
-2.40000000e-02 6.40000000e-02 4.00000000e-02
-2.40000000e-02 6.40000000e-02 4.80000000e-02
-2.40000000e-02 7.20000000e-02 -2.40000000e-02
-2.40000000e-02 7.20000000e-02 -1.60000000e-02
-2.40000000e-02 7.20000000e-02 -8.00000000e-03
-2.40000000e-02 7.20000000e-02 0.00000000e+00
-2.40000000e-02 7.20000000e-02 8.00000000e-03
-2.40000000e-02 7.20000000e-02 1.60000000e-02
-2.40000000e-02 7.20000000e-02 2.40000000e-02
-2.40000000e-02 7.20000000e-02 3.20000000e-02
-2.40000000e-02 7.20000000e-02 4.00000000e-02
-2.40000000e-02 7.20000000e-02 4.80000000e-02
-2.40000000e-02 8.00000000e-02 -2.40000000e-02
-2.40000000e-02 8.00000000e-02 -1.60000000e-02
-2.40000000e-02 8.00000000e-02 -8.00000000e-03
-2.40000000e-02 8.00000000e-02 0.00000000e+00
-2.40000000e-02 8.00000000e-02 8.00000000e-03
-2.40000000e-02 8.00000000e-02 1.60000000e-02
-2.40000000e-02 8.00000000e-02 2.40000000e-02
-2.40000000e-02 8.00000000e-02 3.20000000e-02
-2.40000000e-02 8.00000000e-02 4.00000000e-02
-2.40000000e-02 8.00000000e-02 4.80000000e-02
-2.40000000e-02 8.80000000e-02 -2.40000000e-02
-2.40000000e-02 8.80000000e-02 -1.60000000e-02
-2.40000000e-02 8.80000000e-02 -8.00000000e-03
-2.40000000e-02 8.80000000e-02 0.00000000e+00
-2.40000000e-02 8.80000000e-02 8.00000000e-03
-2.40000000e-02 8.80000000e-02 1.60000000e-02
-2.40000000e-02 8.80000000e-02 2.40000000e-02
-2.40000000e-02 8.80000000e-02 3.20000000e-02
-2.40000000e-02 8.80000000e-02 4.00000000e-02
-2.40000000e-02 8.80000000e-02 4.80000000e-02
-2.40000000e-02 9.60000000e-02 -2.40000000e-02
-2.40000000e-02 9.60000000e-02 -1.60000000e-02
-2.40000000e-02 9.60000000e-02 -8.00000000e-03
-2.40000000e-02 9.60000000e-02 0.00000000e+00
-2.40000000e-02 9.60000000e-02 8.00000000e-03
-2.40000000e-02 9.60000000e-02 1.60000000e-02
-2.40000000e-02 9.60000000e-02 2.40000000e-02
-2.40000000e-02 9.60000000e-02 3.20000000e-02
-2.40000000e-02 9.60000000e-02 4.00000000e-02
-2.40000000e-02 9.60000000e-02 4.80000000e-02
-2.40000000e-02 1.04000000e-01 -2.40000000e-02
-2.40000000e-02 1.04000000e-01 -1.60000000e-02
-2.40000000e-02 1.04000000e-01 -8.00000000e-03
-2.40000000e-02 1.04000000e-01 0.00000000e+00
-2.40000000e-02 1.04000000e-01 8.00000000e-03
-2.40000000e-02 1.04000000e-01 1.60000000e-02
-2.40000000e-02 1.04000000e-01 2.40000000e-02
-2.40000000e-02 1.04000000e-01 3.20000000e-02
-2.40000000e-02 1.04000000e-01 4.00000000e-02
-2.40000000e-02 1.04000000e-01 4.80000000e-02
-2.40000000e-02 1.12000000e-01 -2.40000000e-02
-2.40000000e-02 1.12000000e-01 -1.60000000e-02
-2.40000000e-02 1.12000000e-01 -8.00000000e-03
-2.40000000e-02 1.12000000e-01 0.00000000e+00
-2.40000000e-02 1.12000000e-01 8.00000000e-03
-2.40000000e-02 1.12000000e-01 1.60000000e-02
-2.40000000e-02 1.12000000e-01 2.40000000e-02
-2.40000000e-02 1.12000000e-01 3.20000000e-02
-2.40000000e-02 1.12000000e-01 4.00000000e-02
-2.40000000e-02 1.12000000e-01 4.80000000e-02
-2.40000000e-02 1.20000000e-01 -2.40000000e-02
-2.40000000e-02 1.20000000e-01 -1.60000000e-02
-2.40000000e-02 1.20000000e-01 -8.00000000e-03
-2.40000000e-02 1.20000000e-01 0.00000000e+00
-2.40000000e-02 1.20000000e-01 8.00000000e-03
-2.40000000e-02 1.20000000e-01 1.60000000e-02
-2.40000000e-02 1.20000000e-01 2.40000000e-02
-2.40000000e-02 1.20000000e-01 3.20000000e-02
-2.40000000e-02 1.20000000e-01 4.00000000e-02
-2.40000000e-02 1.20000000e-01 4.80000000e-02
-2.40000000e-02 1.28000000e-01 -2.40000000e-02
-2.40000000e-02 1.28000000e-01 -1.60000000e-02
-2.40000000e-02 1.28000000e-01 -8.00000000e-03
-2.40000000e-02 1.28000000e-01 0.00000000e+00
-2.40000000e-02 1.28000000e-01 8.00000000e-03
-2.40000000e-02 1.28000000e-01 1.60000000e-02
-2.40000000e-02 1.28000000e-01 2.40000000e-02
-2.40000000e-02 1.28000000e-01 3.20000000e-02
-2.40000000e-02 1.28000000e-01 4.00000000e-02
-2.40000000e-02 1.28000000e-01 4.80000000e-02
-2.40000000e-02 1.36000000e-01 -2.40000000e-02
-2.40000000e-02 1.36000000e-01 -1.60000000e-02
-2.40000000e-02 1.36000000e-01 -8.00000000e-03
-2.40000000e-02 1.36000000e-01 0.00000000e+00
-2.40000000e-02 1.36000000e-01 8.00000000e-03
-2.40000000e-02 1.36000000e-01 1.60000000e-02
-2.40000000e-02 1.36000000e-01 2.40000000e-02
-2.40000000e-02 1.36000000e-01 3.20000000e-02
-2.40000000e-02 1.36000000e-01 4.00000000e-02
-2.40000000e-02 1.36000000e-01 4.80000000e-02
-2.40000000e-02 1.44000000e-01 -2.40000000e-02
-2.40000000e-02 1.44000000e-01 -1.60000000e-02
[...]
POINT_DATA 27408
SCALARS pressure double 1
LOOKUP_TABLE default
0.00000000e+00
0.00000000e+00
0.00000000e+00
0.00000000e+00
0.00000000e+00
0.00000000e+00
0.00000000e+00
0.00000000e+00
0.00000000e+00
0.00000000e+00
0.00000000e+00
0.00000000e+00
0.00000000e+00
0.00000000e+00
0.00000000e+00
0.00000000e+00
0.00000000e+00
0.00000000e+00
0.00000000e+00
0.00000000e+00
0.00000000e+00
0.00000000e+00
0.00000000e+00
0.00000000e+00
0.00000000e+00
0.00000000e+00
0.00000000e+00
0.00000000e+00
0.00000000e+00
0.00000000e+00
0.00000000e+00
0.00000000e+00
0.00000000e+00
0.00000000e+00
0.00000000e+00
0.00000000e+00
0.00000000e+00
0.00000000e+00
0.00000000e+00
0.00000000e+00
0.00000000e+00
0.00000000e+00
0.00000000e+00
0.00000000e+00
0.00000000e+00
0.00000000e+00
0.00000000e+00
0.00000000e+00
0.00000000e+00
0.00000000e+00
0.00000000e+00
0.00000000e+00
0.00000000e+00
0.00000000e+00
0.00000000e+00
0.00000000e+00
0.00000000e+00
0.00000000e+00
0.00000000e+00
0.00000000e+00
0.00000000e+00
0.00000000e+00
0.00000000e+00
0.00000000e+00
0.00000000e+00
0.00000000e+00
0.00000000e+00
0.00000000e+00
0.00000000e+00
0.00000000e+00
0.00000000e+00
0.00000000e+00
0.00000000e+00
0.00000000e+00
0.00000000e+00
0.00000000e+00
0.00000000e+00
0.00000000e+00
0.00000000e+00
0.00000000e+00
0.00000000e+00
0.00000000e+00
0.00000000e+00
0.00000000e+00
0.00000000e+00
0.00000000e+00
0.00000000e+00
0.00000000e+00
0.00000000e+00
0.00000000e+00
0.00000000e+00
0.00000000e+00
0.00000000e+00
0.00000000e+00
0.00000000e+00
0.00000000e+00
0.00000000e+00
0.00000000e+00
0.00000000e+00
0.00000000e+00
0.00000000e+00
0.00000000e+00
0.00000000e+00
0.00000000e+00
0.00000000e+00
0.00000000e+00
0.00000000e+00
0.00000000e+00
0.00000000e+00
0.00000000e+00
0.00000000e+00
0.00000000e+00
0.00000000e+00
0.00000000e+00
0.00000000e+00
0.00000000e+00
0.00000000e+00
0.00000000e+00
0.00000000e+00
0.00000000e+00
0.00000000e+00
0.00000000e+00
0.00000000e+00
0.00000000e+00
0.00000000e+00
0.00000000e+00
0.00000000e+00
0.00000000e+00
0.00000000e+00
0.00000000e+00
0.00000000e+00
0.00000000e+00
0.00000000e+00
0.00000000e+00
0.00000000e+00
0.00000000e+00
0.00000000e+00
0.00000000e+00
0.00000000e+00
0.00000000e+00
0.00000000e+00
0.00000000e+00
0.00000000e+00
0.00000000e+00
0.00000000e+00
0.00000000e+00
0.00000000e+00
0.00000000e+00
0.00000000e+00
0.00000000e+00
0.00000000e+00
0.00000000e+00
0.00000000e+00
0.00000000e+00
0.00000000e+00
0.00000000e+00
0.00000000e+00
0.00000000e+00
0.00000000e+00
0.00000000e+00
0.00000000e+00
0.00000000e+00
0.00000000e+00
0.00000000e+00
0.00000000e+00
0.00000000e+00
0.00000000e+00
0.00000000e+00
0.00000000e+00
0.00000000e+00
0.00000000e+00
0.00000000e+00
0.00000000e+00
0.00000000e+00
0.00000000e+00
0.00000000e+00
0.00000000e+00
0.00000000e+00
0.00000000e+00
0.00000000e+00
0.00000000e+00
0.00000000e+00
0.00000000e+00
0.00000000e+00
0.00000000e+00
0.00000000e+00
0.00000000e+00
0.00000000e+00
0.00000000e+00
0.00000000e+00
0.00000000e+00
0.00000000e+00
0.00000000e+00
0.00000000e+00
0.00000000e+00
0.00000000e+00
0.00000000e+00
0.00000000e+00
0.00000000e+00
0.00000000e+00
0.00000000e+00
0.00000000e+00
0.00000000e+00
0.00000000e+00
0.00000000e+00
0.00000000e+00
0.00000000e+00
0.00000000e+00
0.00000000e+00
0.00000000e+00
0.00000000e+00
0.00000000e+00
0.00000000e+00
0.00000000e+00
0.00000000e+00
0.00000000e+00
0.00000000e+00
0.00000000e+00
0.00000000e+00
0.00000000e+00
0.00000000e+00
0.00000000e+00
0.00000000e+00
0.00000000e+00
0.00000000e+00
0.00000000e+00
0.00000000e+00
0.00000000e+00
0.00000000e+00
0.00000000e+00
0.00000000e+00
0.00000000e+00
0.00000000e+00
0.00000000e+00
0.00000000e+00
0.00000000e+00
0.00000000e+00
0.00000000e+00
0.00000000e+00
0.00000000e+00
0.00000000e+00
0.00000000e+00
0.00000000e+00
0.00000000e+00
0.00000000e+00
0.00000000e+00
0.00000000e+00
0.00000000e+00
0.00000000e+00
0.00000000e+00
0.00000000e+00
0.00000000e+00
0.00000000e+00
0.00000000e+00
0.00000000e+00
0.00000000e+00
0.00000000e+00
0.00000000e+00
0.00000000e+00
0.00000000e+00
0.00000000e+00
0.00000000e+00
0.00000000e+00
0.00000000e+00
0.00000000e+00
0.00000000e+00
0.00000000e+00
0.00000000e+00
0.00000000e+00
0.00000000e+00
0.00000000e+00
0.00000000e+00
0.00000000e+00
0.00000000e+00
0.00000000e+00
0.00000000e+00
0.00000000e+00
0.00000000e+00
0.00000000e+00
0.00000000e+00
0.00000000e+00
0.00000000e+00
0.00000000e+00
0.00000000e+00
0.00000000e+00
0.00000000e+00
0.00000000e+00
0.00000000e+00
0.00000000e+00
0.00000000e+00
0.00000000e+00
0.00000000e+00
0.00000000e+00
0.00000000e+00
0.00000000e+00
0.00000000e+00
0.00000000e+00
0.00000000e+00
0.00000000e+00
0.00000000e+00
0.00000000e+00
0.00000000e+00
0.00000000e+00
0.00000000e+00
0.00000000e+00
0.00000000e+00
0.00000000e+00
0.00000000e+00
0.00000000e+00
0.00000000e+00
0.00000000e+00
0.00000000e+00
0.00000000e+00
0.00000000e+00
0.00000000e+00
0.00000000e+00
0.00000000e+00
0.00000000e+00
0.00000000e+00
0.00000000e+00
0.00000000e+00
0.00000000e+00
0.00000000e+00
0.00000000e+00
0.00000000e+00
0.00000000e+00
0.00000000e+00
0.00000000e+00
0.00000000e+00
0.00000000e+00
0.00000000e+00
0.00000000e+00
0.00000000e+00
0.00000000e+00
0.00000000e+00
0.00000000e+00
0.00000000e+00
0.00000000e+00
0.00000000e+00
0.00000000e+00
0.00000000e+00
0.00000000e+00
0.00000000e+00
0.00000000e+00
0.00000000e+00
0.00000000e+00
0.00000000e+00
0.00000000e+00
0.00000000e+00
0.00000000e+00
0.00000000e+00
0.00000000e+00
0.00000000e+00
0.00000000e+00
0.00000000e+00
0.00000000e+00
0.00000000e+00
0.00000000e+00
0.00000000e+00
0.00000000e+00
0.00000000e+00
0.00000000e+00
0.00000000e+00
0.00000000e+00
0.00000000e+00
0.00000000e+00
0.00000000e+00
0.00000000e+00
0.00000000e+00
0.00000000e+00
0.00000000e+00
0.00000000e+00
0.00000000e+00
0.00000000e+00
0.00000000e+00
0.00000000e+00
0.00000000e+00
0.00000000e+00
0.00000000e+00
0.00000000e+00
0.00000000e+00
0.00000000e+00
0.00000000e+00
0.00000000e+00
0.00000000e+00
0.00000000e+00
0.00000000e+00
0.00000000e+00
0.00000000e+00
0.00000000e+00
0.00000000e+00
0.00000000e+00
0.00000000e+00
0.00000000e+00
0.00000000e+00
0.00000000e+00
0.00000000e+00
0.00000000e+00
0.00000000e+00
0.00000000e+00
0.00000000e+00
0.00000000e+00
0.00000000e+00
0.00000000e+00
0.00000000e+00
0.00000000e+00
0.00000000e+00
0.00000000e+00
0.00000000e+00
0.00000000e+00
0.00000000e+00
0.00000000e+00
0.00000000e+00
0.00000000e+00
0.00000000e+00
0.00000000e+00
0.00000000e+00
0.00000000e+00
0.00000000e+00
0.00000000e+00
0.00000000e+00
0.00000000e+00
0.00000000e+00
0.00000000e+00
0.00000000e+00
0.00000000e+00
0.00000000e+00
0.00000000e+00
0.00000000e+00
0.00000000e+00
0.00000000e+00
0.00000000e+00
0.00000000e+00
0.00000000e+00
0.00000000e+00
0.00000000e+00
0.00000000e+00
0.00000000e+00
0.00000000e+00
0.00000000e+00
0.00000000e+00
0.00000000e+00
0.00000000e+00
0.00000000e+00
0.00000000e+00
0.00000000e+00
0.00000000e+00
0.00000000e+00
0.00000000e+00
0.00000000e+00
0.00000000e+00
0.00000000e+00
0.00000000e+00
0.00000000e+00
0.00000000e+00
0.00000000e+00
0.00000000e+00
0.00000000e+00
0.00000000e+00
0.00000000e+00
0.00000000e+00
0.00000000e+00
0.00000000e+00
0.00000000e+00
0.00000000e+00
0.00000000e+00
0.00000000e+00
0.00000000e+00
0.00000000e+00
0.00000000e+00
0.00000000e+00
0.00000000e+00
0.00000000e+00
0.00000000e+00
0.00000000e+00
0.00000000e+00
0.00000000e+00
0.00000000e+00
0.00000000e+00
0.00000000e+00
0.00000000e+00
0.00000000e+00
0.00000000e+00
0.00000000e+00
0.00000000e+00
0.00000000e+00
0.00000000e+00
0.00000000e+00
0.00000000e+00
0.00000000e+00
0.00000000e+00
0.00000000e+00
0.00000000e+00
0.00000000e+00
0.00000000e+00
0.00000000e+00
0.00000000e+00
0.00000000e+00
0.00000000e+00
0.00000000e+00
0.00000000e+00
0.00000000e+00
0.00000000e+00
0.00000000e+00
0.00000000e+00
0.00000000e+00
0.00000000e+00
0.00000000e+00
0.00000000e+00
0.00000000e+00
0.00000000e+00
0.00000000e+00
0.00000000e+00
0.00000000e+00
0.00000000e+00
0.00000000e+00
0.00000000e+00
0.00000000e+00
0.00000000e+00
0.00000000e+00
0.00000000e+00
0.00000000e+00
0.00000000e+00
0.00000000e+00
0.00000000e+00
0.00000000e+00
0.00000000e+00
0.00000000e+00
0.00000000e+00
0.00000000e+00
0.00000000e+00
0.00000000e+00
0.00000000e+00
0.00000000e+00
0.00000000e+00
0.00000000e+00
0.00000000e+00
0.00000000e+00
0.00000000e+00
0.00000000e+00
0.00000000e+00
0.00000000e+00
0.00000000e+00
0.00000000e+00
0.00000000e+00
0.00000000e+00
0.00000000e+00
0.00000000e+00
0.00000000e+00
0.00000000e+00
0.00000000e+00
0.00000000e+00
0.00000000e+00
0.00000000e+00
0.00000000e+00
0.00000000e+00
0.00000000e+00
0.00000000e+00
0.00000000e+00
0.00000000e+00
0.00000000e+00
0.00000000e+00
0.00000000e+00
0.00000000e+00
0.00000000e+00
0.00000000e+00
0.00000000e+00
0.00000000e+00
0.00000000e+00
0.00000000e+00
0.00000000e+00
0.00000000e+00
0.00000000e+00
0.00000000e+00
0.00000000e+00
0.00000000e+00
0.00000000e+00
0.00000000e+00
0.00000000e+00
0.00000000e+00
0.00000000e+00
0.00000000e+00
0.00000000e+00
0.00000000e+00
0.00000000e+00
0.00000000e+00
0.00000000e+00
0.00000000e+00
0.00000000e+00
0.00000000e+00
0.00000000e+00
0.00000000e+00
0.00000000e+00
0.00000000e+00
0.00000000e+00
0.00000000e+00
0.00000000e+00
0.00000000e+00
0.00000000e+00
0.00000000e+00
0.00000000e+00
0.00000000e+00
0.00000000e+00
0.00000000e+00
0.00000000e+00
0.00000000e+00
0.00000000e+00
0.00000000e+00
0.00000000e+00
0.00000000e+00
0.00000000e+00
0.00000000e+00
0.00000000e+00
0.00000000e+00
0.00000000e+00
0.00000000e+00
0.00000000e+00
0.00000000e+00
0.00000000e+00
0.00000000e+00
0.00000000e+00
0.00000000e+00
0.00000000e+00
0.00000000e+00
0.00000000e+00
0.00000000e+00
0.00000000e+00
0.00000000e+00
0.00000000e+00
0.00000000e+00
0.00000000e+00
0.00000000e+00
0.00000000e+00
0.00000000e+00
0.00000000e+00
0.00000000e+00
0.00000000e+00
0.00000000e+00
0.00000000e+00
0.00000000e+00
0.00000000e+00
0.00000000e+00
0.00000000e+00
0.00000000e+00
0.00000000e+00
0.00000000e+00
0.00000000e+00
0.00000000e+00
0.00000000e+00
0.00000000e+00
0.00000000e+00
0.00000000e+00
0.00000000e+00
0.00000000e+00
0.00000000e+00
0.00000000e+00
0.00000000e+00
0.00000000e+00
0.00000000e+00
0.00000000e+00
0.00000000e+00
0.00000000e+00
0.00000000e+00
0.00000000e+00
0.00000000e+00
0.00000000e+00
0.00000000e+00
0.00000000e+00
0.00000000e+00
0.00000000e+00
0.00000000e+00
0.00000000e+00
0.00000000e+00
0.00000000e+00
0.00000000e+00
0.00000000e+00
0.00000000e+00
0.00000000e+00
0.00000000e+00
0.00000000e+00
0.00000000e+00
0.00000000e+00
0.00000000e+00
0.00000000e+00
0.00000000e+00
0.00000000e+00
0.00000000e+00
0.00000000e+00
0.00000000e+00
0.00000000e+00
0.00000000e+00
0.00000000e+00
0.00000000e+00
0.00000000e+00
0.00000000e+00
0.00000000e+00
0.00000000e+00
0.00000000e+00
0.00000000e+00
0.00000000e+00
0.00000000e+00
0.00000000e+00
0.00000000e+00
0.00000000e+00
0.00000000e+00
0.00000000e+00
0.00000000e+00
0.00000000e+00
0.00000000e+00
0.00000000e+00
0.00000000e+00
0.00000000e+00
0.00000000e+00
0.00000000e+00
0.00000000e+00
0.00000000e+00
0.00000000e+00
0.00000000e+00
0.00000000e+00
0.00000000e+00
0.00000000e+00
0.00000000e+00
0.00000000e+00
0.00000000e+00
0.00000000e+00
0.00000000e+00
0.00000000e+00
0.00000000e+00
0.00000000e+00
0.00000000e+00
0.00000000e+00
0.00000000e+00
0.00000000e+00
0.00000000e+00
0.00000000e+00
0.00000000e+00
0.00000000e+00
0.00000000e+00
0.00000000e+00
0.00000000e+00
0.00000000e+00
0.00000000e+00
0.00000000e+00
0.00000000e+00
0.00000000e+00
0.00000000e+00
0.00000000e+00
0.00000000e+00
0.00000000e+00
0.00000000e+00
0.00000000e+00
0.00000000e+00
0.00000000e+00
0.00000000e+00
0.00000000e+00
0.00000000e+00
0.00000000e+00
0.00000000e+00
0.00000000e+00
0.00000000e+00
0.00000000e+00
0.00000000e+00
0.00000000e+00
0.00000000e+00
0.00000000e+00
0.00000000e+00
0.00000000e+00
0.00000000e+00
0.00000000e+00
0.00000000e+00
0.00000000e+00
0.00000000e+00
0.00000000e+00
0.00000000e+00
0.00000000e+00
0.00000000e+00
0.00000000e+00
0.00000000e+00
0.00000000e+00
0.00000000e+00
0.00000000e+00
0.00000000e+00
0.00000000e+00
0.00000000e+00
0.00000000e+00
0.00000000e+00
0.00000000e+00
0.00000000e+00
0.00000000e+00
0.00000000e+00
0.00000000e+00
0.00000000e+00
0.00000000e+00
0.00000000e+00
0.00000000e+00
0.00000000e+00
0.00000000e+00
0.00000000e+00
0.00000000e+00
0.00000000e+00
0.00000000e+00
0.00000000e+00
0.00000000e+00
0.00000000e+00
0.00000000e+00
0.00000000e+00
0.00000000e+00
0.00000000e+00
0.00000000e+00
0.00000000e+00
0.00000000e+00
0.00000000e+00
0.00000000e+00
0.00000000e+00
0.00000000e+00
0.00000000e+00
0.00000000e+00
0.00000000e+00
0.00000000e+00
0.00000000e+00
0.00000000e+00
0.00000000e+00
-4.68368620e+02
-1.88820065e+02
-1.16536980e+02
-3.47303113e+02
-5.84711706e+02
-5.10770587e+02
0.00000000e+00
0.00000000e+00
0.00000000e+00
0.00000000e+00
-1.73886632e+02
-1.00027228e+02
-7.39208453e+01
-1.70225511e+02
-2.77881393e+02
-2.81359581e+02
0.00000000e+00
0.00000000e+00
0.00000000e+00
0.00000000e+00
3.02769644e+01
5.22783456e+00
5.98696467e+00
3.10958281e+00
-1.98577259e+01
-3.80985135e+01
0.00000000e+00
0.00000000e+00
0.00000000e+00
0.00000000e+00
6.96360954e+01
5.46918255e+01
5.69212197e+01
7.21681042e+01
7.82856266e+01
7.48101086e+01
0.00000000e+00
0.00000000e+00
0.00000000e+00
0.00000000e+00
6.83298540e+01
6.79944828e+01
7.92837761e+01
1.02587473e+02
1.31235736e+02
1.44754169e+02
0.00000000e+00
0.00000000e+00
0.00000000e+00
0.00000000e+00
6.59755316e+01
7.11295373e+01
8.72999800e+01
1.21837533e+02
1.73606334e+02
2.01664233e+02
0.00000000e+00
0.00000000e+00
0.00000000e+00
0.00000000e+00
6.07697689e+01
6.59022726e+01
8.07449973e+01
1.12237961e+02
1.60879673e+02
1.87648485e+02
0.00000000e+00
0.00000000e+00
0.00000000e+00
0.00000000e+00
5.07442804e+01
5.31882995e+01
6.07383445e+01
7.57743436e+01
9.83234856e+01
1.11482854e+02
0.00000000e+00
0.00000000e+00
0.00000000e+00
0.00000000e+00
3.61223479e+01
3.43912174e+01
3.22715476e+01
3.34969289e+01
3.80788820e+01
4.16124811e+01
0.00000000e+00
0.00000000e+00
0.00000000e+00
0.00000000e+00
1.52131394e+01
8.55133412e+00
-3.68877449e+00
-1.27300144e+01
-1.48860013e+01
-1.42620741e+01
0.00000000e+00
0.00000000e+00
0.00000000e+00
0.00000000e+00
-1.44980868e+01
-2.62415153e+01
-5.40102359e+01
-7.10311938e+01
-6.81905558e+01
-6.46651570e+01
0.00000000e+00
0.00000000e+00
0.00000000e+00
0.00000000e+00
-4.94374021e+01
-6.69807796e+01
-1.07556855e+02
-1.35083551e+02
-1.17803450e+02
-1.10244623e+02
0.00000000e+00
0.00000000e+00
0.00000000e+00
0.00000000e+00
-8.19356199e+01
-9.70809933e+01
-1.29452957e+02
-1.51518263e+02
-1.51585500e+02
-1.49648307e+02
0.00000000e+00
0.00000000e+00
0.00000000e+00
0.00000000e+00
-1.09669794e+02
-1.21052213e+02
-1.44176558e+02
-1.66909859e+02
-1.80152615e+02
-1.85489585e+02
0.00000000e+00
0.00000000e+00
0.00000000e+00
0.00000000e+00
-1.33960137e+02
-1.44419149e+02
-1.66229147e+02
-1.91890759e+02
-2.11862608e+02
-2.20891759e+02
0.00000000e+00
0.00000000e+00
0.00000000e+00
0.00000000e+00
-1.55326284e+02
-1.66178515e+02
-1.89696137e+02
-2.19277634e+02
-2.44059894e+02
-2.55802441e+02
0.00000000e+00
0.00000000e+00
0.00000000e+00
0.00000000e+00
-1.73339259e+02
-1.84985007e+02
-2.10789614e+02
-2.44338514e+02
-2.73400241e+02
-2.87416370e+02
0.00000000e+00
0.00000000e+00
0.00000000e+00
0.00000000e+00
-1.87377623e+02
-1.99656046e+02
-2.27197312e+02
-2.63643327e+02
-2.95783703e+02
-3.11398183e+02
0.00000000e+00
0.00000000e+00
0.00000000e+00
0.00000000e+00
-1.97001634e+02
-2.09424675e+02
-2.37395144e+02
-2.74604471e+02
-3.07593243e+02
-3.23650427e+02
0.00000000e+00
0.00000000e+00
0.00000000e+00
0.00000000e+00
-2.02141327e+02
-2.14104498e+02
-2.40932348e+02
-2.76398762e+02
-3.07634263e+02
-3.22812028e+02
0.00000000e+00
0.00000000e+00
0.00000000e+00
0.00000000e+00
-2.03147187e+02
-2.14132671e+02
-2.38531070e+02
-2.70312581e+02
-2.97883081e+02
-3.11211459e+02
0.00000000e+00
0.00000000e+00
0.00000000e+00
0.00000000e+00
-2.00703197e+02
-2.10402531e+02
-2.31679314e+02
-2.58873794e+02
-2.82018880e+02
-2.93118547e+02
0.00000000e+00
0.00000000e+00
0.00000000e+00
0.00000000e+00
-1.95657241e+02
-2.03982549e+02
-2.22016423e+02
-2.44619347e+02
-2.63480588e+02
-2.72438807e+02
0.00000000e+00
0.00000000e+00
0.00000000e+00
0.00000000e+00
-1.88854326e+02
-1.95877173e+02
-2.10916197e+02
-2.29425463e+02
-2.44586687e+02
-2.51715385e+02
0.00000000e+00
0.00000000e+00
0.00000000e+00
0.00000000e+00
-1.81028190e+02
-1.86903801e+02
-1.99361785e+02
-2.14448001e+02
-2.26600171e+02
-2.32258520e+02
0.00000000e+00
0.00000000e+00
0.00000000e+00
0.00000000e+00
-1.72758571e+02
-1.77668441e+02
-1.87990918e+02
-2.00313940e+02
-2.10092925e+02
-2.14604669e+02
0.00000000e+00
0.00000000e+00
0.00000000e+00
0.00000000e+00
-1.64473770e+02
-1.68592758e+02
-1.77189633e+02
-1.87323430e+02
-1.95257523e+02
-1.98886834e+02
0.00000000e+00
0.00000000e+00
0.00000000e+00
0.00000000e+00
-1.56474784e+02
-1.59956589e+02
-1.67177484e+02
-1.75592782e+02
-1.82100734e+02
-1.85053783e+02
0.00000000e+00
0.00000000e+00
0.00000000e+00
0.00000000e+00
-1.48964848e+02
-1.51938207e+02
-1.58069872e+02
-1.65141754e+02
-1.70548604e+02
-1.72983327e+02
0.00000000e+00
0.00000000e+00
0.00000000e+00
0.00000000e+00
-1.42076354e+02
-1.44646436e+02
-1.49919565e+02
-1.55943199e+02
-1.60499512e+02
-1.62536311e+02
0.00000000e+00
0.00000000e+00
0.00000000e+00
0.00000000e+00
-1.35892419e+02
-1.38144219e+02
-1.42743099e+02
-1.47950206e+02
-1.51849443e+02
-1.53580402e+02
0.00000000e+00
0.00000000e+00
0.00000000e+00
0.00000000e+00
-1.30462987e+02
-1.32465113e+02
-1.36537159e+02
-1.41110493e+02
-1.44503148e+02
-1.45999323e+02
0.00000000e+00
0.00000000e+00
0.00000000e+00
0.00000000e+00
-1.25816344e+02
-1.27624528e+02
-1.31288606e+02
-1.35373795e+02
-1.38378404e+02
-1.39695362e+02
0.00000000e+00
0.00000000e+00
0.00000000e+00
0.00000000e+00
-1.21967140e+02
-1.23627236e+02
-1.26980553e+02
-1.30695481e+02
-1.33407032e+02
-1.34589027e+02
0.00000000e+00
0.00000000e+00
0.00000000e+00
0.00000000e+00
-1.18921858e+02
-1.20472351e+02
-1.23596036e+02
-1.27038187e+02
-1.29534533e+02
-1.30617639e+02
0.00000000e+00
0.00000000e+00
0.00000000e+00
0.00000000e+00
-1.16682494e+02
-1.18156621e+02
-1.21120286e+02
-1.24372465e+02
-1.26719200e+02
-1.27733708e+02
0.00000000e+00
0.00000000e+00
0.00000000e+00
0.00000000e+00
-1.15249476e+02
-1.16676895e+02
-1.19542641e+02
-1.22677203e+02
-1.24931149e+02
-1.25904051e+02
0.00000000e+00
0.00000000e+00
0.00000000e+00
0.00000000e+00
-1.14612158e+02
-1.16024384e+02
-1.18851496e+02
-1.21930010e+02
-1.24140955e+02
-1.25094589e+02
0.00000000e+00
0.00000000e+00
0.00000000e+00
0.00000000e+00
0.00000000e+00
0.00000000e+00
0.00000000e+00
0.00000000e+00
0.00000000e+00
0.00000000e+00
0.00000000e+00
0.00000000e+00
0.00000000e+00
0.00000000e+00
0.00000000e+00
0.00000000e+00
0.00000000e+00
0.00000000e+00
0.00000000e+00
0.00000000e+00
0.00000000e+00
0.00000000e+00
0.00000000e+00
0.00000000e+00
-2.79107383e+02
-1.65810116e+02
-7.51732310e+01
-1.82581547e+02
-3.84611216e+02
-3.01551962e+02
0.00000000e+00
0.00000000e+00
0.00000000e+00
0.00000000e+00
-1.25079588e+02
-8.26946356e+01
-2.11902100e+01
-1.65192447e+01
-9.03552305e+01
-1.41663871e+02
0.00000000e+00
0.00000000e+00
0.00000000e+00
0.00000000e+00
1.20989915e+01
7.40398981e+00
4.34353527e+01
1.25379985e+02
1.07507039e+02
3.69813657e+01
0.00000000e+00
0.00000000e+00
0.00000000e+00
0.00000000e+00
5.91979019e+01
5.21572225e+01
6.06116172e+01
1.05394754e+02
1.14619815e+02
9.44539266e+01
0.00000000e+00
0.00000000e+00
0.00000000e+00
0.00000000e+00
6.51897084e+01
6.56162131e+01
7.65593464e+01
1.03838006e+02
1.31099667e+02
1.38973378e+02
0.00000000e+00
0.00000000e+00
0.00000000e+00
0.00000000e+00
6.46449919e+01
6.89703891e+01
8.51520285e+01
1.22284669e+02
1.68468520e+02
1.91921363e+02
0.00000000e+00
0.00000000e+00
0.00000000e+00
0.00000000e+00
5.98336387e+01
6.40977991e+01
7.88332603e+01
1.12138453e+02
1.54358349e+02
1.75761363e+02
0.00000000e+00
0.00000000e+00
0.00000000e+00
0.00000000e+00
5.18249502e+01
5.35827009e+01
6.02752104e+01
7.44750086e+01
9.19054157e+01
1.00433323e+02
0.00000000e+00
0.00000000e+00
0.00000000e+00
0.00000000e+00
4.23378350e+01
3.99311550e+01
3.47804308e+01
3.25538191e+01
3.38981306e+01
3.53765070e+01
0.00000000e+00
0.00000000e+00
0.00000000e+00
0.00000000e+00
3.04034987e+01
2.35221377e+01
2.81083883e+00