# vtk DataFile Version 3.0
MPS 3D Simulation Step 3800
ASCII
DATASET UNSTRUCTURED_GRID
POINTS 27375 double
-2.40000000e-02 -2.40000000e-02 -2.40000000e-02
-2.40000000e-02 -2.40000000e-02 -1.60000000e-02
-2.40000000e-02 -2.40000000e-02 -8.00000000e-03
-2.40000000e-02 -2.40000000e-02 0.00000000e+00
-2.40000000e-02 -2.40000000e-02 8.00000000e-03
-2.40000000e-02 -2.40000000e-02 1.60000000e-02
-2.40000000e-02 -2.40000000e-02 2.40000000e-02
-2.40000000e-02 -2.40000000e-02 3.20000000e-02
-2.40000000e-02 -2.40000000e-02 4.00000000e-02
-2.40000000e-02 -2.40000000e-02 4.80000000e-02
-2.40000000e-02 -1.60000000e-02 -2.40000000e-02
-2.40000000e-02 -1.60000000e-02 -1.60000000e-02
-2.40000000e-02 -1.60000000e-02 -8.00000000e-03
-2.40000000e-02 -1.60000000e-02 0.00000000e+00
-2.40000000e-02 -1.60000000e-02 8.00000000e-03
-2.40000000e-02 -1.60000000e-02 1.60000000e-02
-2.40000000e-02 -1.60000000e-02 2.40000000e-02
-2.40000000e-02 -1.60000000e-02 3.20000000e-02
-2.40000000e-02 -1.60000000e-02 4.00000000e-02
-2.40000000e-02 -1.60000000e-02 4.80000000e-02
-2.40000000e-02 -8.00000000e-03 -2.40000000e-02
-2.40000000e-02 -8.00000000e-03 -1.60000000e-02
-2.40000000e-02 -8.00000000e-03 -8.00000000e-03
-2.40000000e-02 -8.00000000e-03 0.00000000e+00
-2.40000000e-02 -8.00000000e-03 8.00000000e-03
-2.40000000e-02 -8.00000000e-03 1.60000000e-02
-2.40000000e-02 -8.00000000e-03 2.40000000e-02
-2.40000000e-02 -8.00000000e-03 3.20000000e-02
-2.40000000e-02 -8.00000000e-03 4.00000000e-02
-2.40000000e-02 -8.00000000e-03 4.80000000e-02
-2.40000000e-02 0.00000000e+00 -2.40000000e-02
-2.40000000e-02 0.00000000e+00 -1.60000000e-02
-2.40000000e-02 0.00000000e+00 -8.00000000e-03
-2.40000000e-02 0.00000000e+00 0.00000000e+00
-2.40000000e-02 0.00000000e+00 8.00000000e-03
-2.40000000e-02 0.00000000e+00 1.60000000e-02
-2.40000000e-02 0.00000000e+00 2.40000000e-02
-2.40000000e-02 0.00000000e+00 3.20000000e-02
-2.40000000e-02 0.00000000e+00 4.00000000e-02
-2.40000000e-02 0.00000000e+00 4.80000000e-02
-2.40000000e-02 8.00000000e-03 -2.40000000e-02
-2.40000000e-02 8.00000000e-03 -1.60000000e-02
-2.40000000e-02 8.00000000e-03 -8.00000000e-03
-2.40000000e-02 8.00000000e-03 0.00000000e+00
-2.40000000e-02 8.00000000e-03 8.00000000e-03
-2.40000000e-02 8.00000000e-03 1.60000000e-02
-2.40000000e-02 8.00000000e-03 2.40000000e-02
-2.40000000e-02 8.00000000e-03 3.20000000e-02
-2.40000000e-02 8.00000000e-03 4.00000000e-02
-2.40000000e-02 8.00000000e-03 4.80000000e-02
-2.40000000e-02 1.60000000e-02 -2.40000000e-02
-2.40000000e-02 1.60000000e-02 -1.60000000e-02
-2.40000000e-02 1.60000000e-02 -8.00000000e-03
-2.40000000e-02 1.60000000e-02 0.00000000e+00
-2.40000000e-02 1.60000000e-02 8.00000000e-03
-2.40000000e-02 1.60000000e-02 1.60000000e-02
-2.40000000e-02 1.60000000e-02 2.40000000e-02
-2.40000000e-02 1.60000000e-02 3.20000000e-02
-2.40000000e-02 1.60000000e-02 4.00000000e-02
-2.40000000e-02 1.60000000e-02 4.80000000e-02
-2.40000000e-02 2.40000000e-02 -2.40000000e-02
-2.40000000e-02 2.40000000e-02 -1.60000000e-02
-2.40000000e-02 2.40000000e-02 -8.00000000e-03
-2.40000000e-02 2.40000000e-02 0.00000000e+00
-2.40000000e-02 2.40000000e-02 8.00000000e-03
-2.40000000e-02 2.40000000e-02 1.60000000e-02
-2.40000000e-02 2.40000000e-02 2.40000000e-02
-2.40000000e-02 2.40000000e-02 3.20000000e-02
-2.40000000e-02 2.40000000e-02 4.00000000e-02
-2.40000000e-02 2.40000000e-02 4.80000000e-02
-2.40000000e-02 3.20000000e-02 -2.40000000e-02
-2.40000000e-02 3.20000000e-02 -1.60000000e-02
-2.40000000e-02 3.20000000e-02 -8.00000000e-03
-2.40000000e-02 3.20000000e-02 0.00000000e+00
-2.40000000e-02 3.20000000e-02 8.00000000e-03
-2.40000000e-02 3.20000000e-02 1.60000000e-02
-2.40000000e-02 3.20000000e-02 2.40000000e-02
-2.40000000e-02 3.20000000e-02 3.20000000e-02
-2.40000000e-02 3.20000000e-02 4.00000000e-02
-2.40000000e-02 3.20000000e-02 4.80000000e-02
-2.40000000e-02 4.00000000e-02 -2.40000000e-02
-2.40000000e-02 4.00000000e-02 -1.60000000e-02
-2.40000000e-02 4.00000000e-02 -8.00000000e-03
-2.40000000e-02 4.00000000e-02 0.00000000e+00
-2.40000000e-02 4.00000000e-02 8.00000000e-03
-2.40000000e-02 4.00000000e-02 1.60000000e-02
-2.40000000e-02 4.00000000e-02 2.40000000e-02
-2.40000000e-02 4.00000000e-02 3.20000000e-02
-2.40000000e-02 4.00000000e-02 4.00000000e-02
-2.40000000e-02 4.00000000e-02 4.80000000e-02
-2.40000000e-02 4.80000000e-02 -2.40000000e-02
-2.40000000e-02 4.80000000e-02 -1.60000000e-02
-2.40000000e-02 4.80000000e-02 -8.00000000e-03
-2.40000000e-02 4.80000000e-02 0.00000000e+00
-2.40000000e-02 4.80000000e-02 8.00000000e-03
-2.40000000e-02 4.80000000e-02 1.60000000e-02
-2.40000000e-02 4.80000000e-02 2.40000000e-02
-2.40000000e-02 4.80000000e-02 3.20000000e-02
-2.40000000e-02 4.80000000e-02 4.00000000e-02
-2.40000000e-02 4.80000000e-02 4.80000000e-02
-2.40000000e-02 5.60000000e-02 -2.40000000e-02
-2.40000000e-02 5.60000000e-02 -1.60000000e-02
-2.40000000e-02 5.60000000e-02 -8.00000000e-03
-2.40000000e-02 5.60000000e-02 0.00000000e+00
-2.40000000e-02 5.60000000e-02 8.00000000e-03
-2.40000000e-02 5.60000000e-02 1.60000000e-02
-2.40000000e-02 5.60000000e-02 2.40000000e-02
-2.40000000e-02 5.60000000e-02 3.20000000e-02
-2.40000000e-02 5.60000000e-02 4.00000000e-02
-2.40000000e-02 5.60000000e-02 4.80000000e-02
-2.40000000e-02 6.40000000e-02 -2.40000000e-02
-2.40000000e-02 6.40000000e-02 -1.60000000e-02
-2.40000000e-02 6.40000000e-02 -8.00000000e-03
-2.40000000e-02 6.40000000e-02 0.00000000e+00
-2.40000000e-02 6.40000000e-02 8.00000000e-03
-2.40000000e-02 6.40000000e-02 1.60000000e-02
-2.40000000e-02 6.40000000e-02 2.40000000e-02
-2.40000000e-02 6.40000000e-02 3.20000000e-02
-2.40000000e-02 6.40000000e-02 4.00000000e-02
-2.40000000e-02 6.40000000e-02 4.80000000e-02
-2.40000000e-02 7.20000000e-02 -2.40000000e-02
-2.40000000e-02 7.20000000e-02 -1.60000000e-02
-2.40000000e-02 7.20000000e-02 -8.00000000e-03
-2.40000000e-02 7.20000000e-02 0.00000000e+00
-2.40000000e-02 7.20000000e-02 8.00000000e-03
-2.40000000e-02 7.20000000e-02 1.60000000e-02
-2.40000000e-02 7.20000000e-02 2.40000000e-02
-2.40000000e-02 7.20000000e-02 3.20000000e-02
-2.40000000e-02 7.20000000e-02 4.00000000e-02
-2.40000000e-02 7.20000000e-02 4.80000000e-02
-2.40000000e-02 8.00000000e-02 -2.40000000e-02
-2.40000000e-02 8.00000000e-02 -1.60000000e-02
-2.40000000e-02 8.00000000e-02 -8.00000000e-03
-2.40000000e-02 8.00000000e-02 0.00000000e+00
-2.40000000e-02 8.00000000e-02 8.00000000e-03
-2.40000000e-02 8.00000000e-02 1.60000000e-02
-2.40000000e-02 8.00000000e-02 2.40000000e-02
-2.40000000e-02 8.00000000e-02 3.20000000e-02
-2.40000000e-02 8.00000000e-02 4.00000000e-02
-2.40000000e-02 8.00000000e-02 4.80000000e-02
-2.40000000e-02 8.80000000e-02 -2.40000000e-02
-2.40000000e-02 8.80000000e-02 -1.60000000e-02
-2.40000000e-02 8.80000000e-02 -8.00000000e-03
-2.40000000e-02 8.80000000e-02 0.00000000e+00
-2.40000000e-02 8.80000000e-02 8.00000000e-03
-2.40000000e-02 8.80000000e-02 1.60000000e-02
-2.40000000e-02 8.80000000e-02 2.40000000e-02
-2.40000000e-02 8.80000000e-02 3.20000000e-02
-2.40000000e-02 8.80000000e-02 4.00000000e-02
-2.40000000e-02 8.80000000e-02 4.80000000e-02
-2.40000000e-02 9.60000000e-02 -2.40000000e-02
-2.40000000e-02 9.60000000e-02 -1.60000000e-02
-2.40000000e-02 9.60000000e-02 -8.00000000e-03
-2.40000000e-02 9.60000000e-02 0.00000000e+00
-2.40000000e-02 9.60000000e-02 8.00000000e-03
-2.40000000e-02 9.60000000e-02 1.60000000e-02
-2.40000000e-02 9.60000000e-02 2.40000000e-02
-2.40000000e-02 9.60000000e-02 3.20000000e-02
-2.40000000e-02 9.60000000e-02 4.00000000e-02
-2.40000000e-02 9.60000000e-02 4.80000000e-02
-2.40000000e-02 1.04000000e-01 -2.40000000e-02
-2.40000000e-02 1.04000000e-01 -1.60000000e-02
-2.40000000e-02 1.04000000e-01 -8.00000000e-03
-2.40000000e-02 1.04000000e-01 0.00000000e+00
-2.40000000e-02 1.04000000e-01 8.00000000e-03
-2.40000000e-02 1.04000000e-01 1.60000000e-02
-2.40000000e-02 1.04000000e-01 2.40000000e-02
-2.40000000e-02 1.04000000e-01 3.20000000e-02
-2.40000000e-02 1.04000000e-01 4.00000000e-02
-2.40000000e-02 1.04000000e-01 4.80000000e-02
-2.40000000e-02 1.12000000e-01 -2.40000000e-02
-2.40000000e-02 1.12000000e-01 -1.60000000e-02
-2.40000000e-02 1.12000000e-01 -8.00000000e-03
-2.40000000e-02 1.12000000e-01 0.00000000e+00
-2.40000000e-02 1.12000000e-01 8.00000000e-03
-2.40000000e-02 1.12000000e-01 1.60000000e-02
-2.40000000e-02 1.12000000e-01 2.40000000e-02
-2.40000000e-02 1.12000000e-01 3.20000000e-02
-2.40000000e-02 1.12000000e-01 4.00000000e-02
-2.40000000e-02 1.12000000e-01 4.80000000e-02
-2.40000000e-02 1.20000000e-01 -2.40000000e-02
-2.40000000e-02 1.20000000e-01 -1.60000000e-02
-2.40000000e-02 1.20000000e-01 -8.00000000e-03
-2.40000000e-02 1.20000000e-01 0.00000000e+00
-2.40000000e-02 1.20000000e-01 8.00000000e-03
-2.40000000e-02 1.20000000e-01 1.60000000e-02
-2.40000000e-02 1.20000000e-01 2.40000000e-02
-2.40000000e-02 1.20000000e-01 3.20000000e-02
-2.40000000e-02 1.20000000e-01 4.00000000e-02
-2.40000000e-02 1.20000000e-01 4.80000000e-02
-2.40000000e-02 1.28000000e-01 -2.40000000e-02
-2.40000000e-02 1.28000000e-01 -1.60000000e-02
-2.40000000e-02 1.28000000e-01 -8.00000000e-03
-2.40000000e-02 1.28000000e-01 0.00000000e+00
-2.40000000e-02 1.28000000e-01 8.00000000e-03
-2.40000000e-02 1.28000000e-01 1.60000000e-02
-2.40000000e-02 1.28000000e-01 2.40000000e-02
-2.40000000e-02 1.28000000e-01 3.20000000e-02
-2.40000000e-02 1.28000000e-01 4.00000000e-02
-2.40000000e-02 1.28000000e-01 4.80000000e-02
-2.40000000e-02 1.36000000e-01 -2.40000000e-02
-2.40000000e-02 1.36000000e-01 -1.60000000e-02
-2.40000000e-02 1.36000000e-01 -8.00000000e-03
-2.40000000e-02 1.36000000e-01 0.00000000e+00
-2.40000000e-02 1.36000000e-01 8.00000000e-03
-2.40000000e-02 1.36000000e-01 1.60000000e-02
-2.40000000e-02 1.36000000e-01 2.40000000e-02
-2.40000000e-02 1.36000000e-01 3.20000000e-02
-2.40000000e-02 1.36000000e-01 4.00000000e-02
-2.40000000e-02 1.36000000e-01 4.80000000e-02
-2.40000000e-02 1.44000000e-01 -2.40000000e-02
-2.40000000e-02 1.44000000e-01 -1.60000000e-02
[...]
POINT_DATA 27375
SCALARS pressure double 1
LOOKUP_TABLE default
0.00000000e+00
0.00000000e+00
0.00000000e+00
0.00000000e+00
0.00000000e+00
0.00000000e+00
0.00000000e+00
0.00000000e+00
0.00000000e+00
0.00000000e+00
0.00000000e+00
0.00000000e+00
0.00000000e+00
0.00000000e+00
0.00000000e+00
0.00000000e+00
0.00000000e+00
0.00000000e+00
0.00000000e+00
0.00000000e+00
0.00000000e+00
0.00000000e+00
0.00000000e+00
0.00000000e+00
0.00000000e+00
0.00000000e+00
0.00000000e+00
0.00000000e+00
0.00000000e+00
0.00000000e+00
0.00000000e+00
0.00000000e+00
0.00000000e+00
0.00000000e+00
0.00000000e+00
0.00000000e+00
0.00000000e+00
0.00000000e+00
0.00000000e+00
0.00000000e+00
0.00000000e+00
0.00000000e+00
0.00000000e+00
0.00000000e+00
0.00000000e+00
0.00000000e+00
0.00000000e+00
0.00000000e+00
0.00000000e+00
0.00000000e+00
0.00000000e+00
0.00000000e+00
0.00000000e+00
0.00000000e+00
0.00000000e+00
0.00000000e+00
0.00000000e+00
0.00000000e+00
0.00000000e+00
0.00000000e+00
0.00000000e+00
0.00000000e+00
0.00000000e+00
0.00000000e+00
0.00000000e+00
0.00000000e+00
0.00000000e+00
0.00000000e+00
0.00000000e+00
0.00000000e+00
0.00000000e+00
0.00000000e+00
0.00000000e+00
0.00000000e+00
0.00000000e+00
0.00000000e+00
0.00000000e+00
0.00000000e+00
0.00000000e+00
0.00000000e+00
0.00000000e+00
0.00000000e+00
0.00000000e+00
0.00000000e+00
0.00000000e+00
0.00000000e+00
0.00000000e+00
0.00000000e+00
0.00000000e+00
0.00000000e+00
0.00000000e+00
0.00000000e+00
0.00000000e+00
0.00000000e+00
0.00000000e+00
0.00000000e+00
0.00000000e+00
0.00000000e+00
0.00000000e+00
0.00000000e+00
0.00000000e+00
0.00000000e+00
0.00000000e+00
0.00000000e+00
0.00000000e+00
0.00000000e+00
0.00000000e+00
0.00000000e+00
0.00000000e+00
0.00000000e+00
0.00000000e+00
0.00000000e+00
0.00000000e+00
0.00000000e+00
0.00000000e+00
0.00000000e+00
0.00000000e+00
0.00000000e+00
0.00000000e+00
0.00000000e+00
0.00000000e+00
0.00000000e+00
0.00000000e+00
0.00000000e+00
0.00000000e+00
0.00000000e+00
0.00000000e+00
0.00000000e+00
0.00000000e+00
0.00000000e+00
0.00000000e+00
0.00000000e+00
0.00000000e+00
0.00000000e+00
0.00000000e+00
0.00000000e+00
0.00000000e+00
0.00000000e+00
0.00000000e+00
0.00000000e+00
0.00000000e+00
0.00000000e+00
0.00000000e+00
0.00000000e+00
0.00000000e+00
0.00000000e+00
0.00000000e+00
0.00000000e+00
0.00000000e+00
0.00000000e+00
0.00000000e+00
0.00000000e+00
0.00000000e+00
0.00000000e+00
0.00000000e+00
0.00000000e+00
0.00000000e+00
0.00000000e+00
0.00000000e+00
0.00000000e+00
0.00000000e+00
0.00000000e+00
0.00000000e+00
0.00000000e+00
0.00000000e+00
0.00000000e+00
0.00000000e+00
0.00000000e+00
0.00000000e+00
0.00000000e+00
0.00000000e+00
0.00000000e+00
0.00000000e+00
0.00000000e+00
0.00000000e+00
0.00000000e+00
0.00000000e+00
0.00000000e+00
0.00000000e+00
0.00000000e+00
0.00000000e+00
0.00000000e+00
0.00000000e+00
0.00000000e+00
0.00000000e+00
0.00000000e+00
0.00000000e+00
0.00000000e+00
0.00000000e+00
0.00000000e+00
0.00000000e+00
0.00000000e+00
0.00000000e+00
0.00000000e+00
0.00000000e+00
0.00000000e+00
0.00000000e+00
0.00000000e+00
0.00000000e+00
0.00000000e+00
0.00000000e+00
0.00000000e+00
0.00000000e+00
0.00000000e+00
0.00000000e+00
0.00000000e+00
0.00000000e+00
0.00000000e+00
0.00000000e+00
0.00000000e+00
0.00000000e+00
0.00000000e+00
0.00000000e+00
0.00000000e+00
0.00000000e+00
0.00000000e+00
0.00000000e+00
0.00000000e+00
0.00000000e+00
0.00000000e+00
0.00000000e+00
0.00000000e+00
0.00000000e+00
0.00000000e+00
0.00000000e+00
0.00000000e+00
0.00000000e+00
0.00000000e+00
0.00000000e+00
0.00000000e+00
0.00000000e+00
0.00000000e+00
0.00000000e+00
0.00000000e+00
0.00000000e+00
0.00000000e+00
0.00000000e+00
0.00000000e+00
0.00000000e+00
0.00000000e+00
0.00000000e+00
0.00000000e+00
0.00000000e+00
0.00000000e+00
0.00000000e+00
0.00000000e+00
0.00000000e+00
0.00000000e+00
0.00000000e+00
0.00000000e+00
0.00000000e+00
0.00000000e+00
0.00000000e+00
0.00000000e+00
0.00000000e+00
0.00000000e+00
0.00000000e+00
0.00000000e+00
0.00000000e+00
0.00000000e+00
0.00000000e+00
0.00000000e+00
0.00000000e+00
0.00000000e+00
0.00000000e+00
0.00000000e+00
0.00000000e+00
0.00000000e+00
0.00000000e+00
0.00000000e+00
0.00000000e+00
0.00000000e+00
0.00000000e+00
0.00000000e+00
0.00000000e+00
0.00000000e+00
0.00000000e+00
0.00000000e+00
0.00000000e+00
0.00000000e+00
0.00000000e+00
0.00000000e+00
0.00000000e+00
0.00000000e+00
0.00000000e+00
0.00000000e+00
0.00000000e+00
0.00000000e+00
0.00000000e+00
0.00000000e+00
0.00000000e+00
0.00000000e+00
0.00000000e+00
0.00000000e+00
0.00000000e+00
0.00000000e+00
0.00000000e+00
0.00000000e+00
0.00000000e+00
0.00000000e+00
0.00000000e+00
0.00000000e+00
0.00000000e+00
0.00000000e+00
0.00000000e+00
0.00000000e+00
0.00000000e+00
0.00000000e+00
0.00000000e+00
0.00000000e+00
0.00000000e+00
0.00000000e+00
0.00000000e+00
0.00000000e+00
0.00000000e+00
0.00000000e+00
0.00000000e+00
0.00000000e+00
0.00000000e+00
0.00000000e+00
0.00000000e+00
0.00000000e+00
0.00000000e+00
0.00000000e+00
0.00000000e+00
0.00000000e+00
0.00000000e+00
0.00000000e+00
0.00000000e+00
0.00000000e+00
0.00000000e+00
0.00000000e+00
0.00000000e+00
0.00000000e+00
0.00000000e+00
0.00000000e+00
0.00000000e+00
0.00000000e+00
0.00000000e+00
0.00000000e+00
0.00000000e+00
0.00000000e+00
0.00000000e+00
0.00000000e+00
0.00000000e+00
0.00000000e+00
0.00000000e+00
0.00000000e+00
0.00000000e+00
0.00000000e+00
0.00000000e+00
0.00000000e+00
0.00000000e+00
0.00000000e+00
0.00000000e+00
0.00000000e+00
0.00000000e+00
0.00000000e+00
0.00000000e+00
0.00000000e+00
0.00000000e+00
0.00000000e+00
0.00000000e+00
0.00000000e+00
0.00000000e+00
0.00000000e+00
0.00000000e+00
0.00000000e+00
0.00000000e+00
0.00000000e+00
0.00000000e+00
0.00000000e+00
0.00000000e+00
0.00000000e+00
0.00000000e+00
0.00000000e+00
0.00000000e+00
0.00000000e+00
0.00000000e+00
0.00000000e+00
0.00000000e+00
0.00000000e+00
0.00000000e+00
0.00000000e+00
0.00000000e+00
0.00000000e+00
0.00000000e+00
0.00000000e+00
0.00000000e+00
0.00000000e+00
0.00000000e+00
0.00000000e+00
0.00000000e+00
0.00000000e+00
0.00000000e+00
0.00000000e+00
0.00000000e+00
0.00000000e+00
0.00000000e+00
0.00000000e+00
0.00000000e+00
0.00000000e+00
0.00000000e+00
0.00000000e+00
0.00000000e+00
0.00000000e+00
0.00000000e+00
0.00000000e+00
0.00000000e+00
0.00000000e+00
0.00000000e+00
0.00000000e+00
0.00000000e+00
0.00000000e+00
0.00000000e+00
0.00000000e+00
0.00000000e+00
0.00000000e+00
0.00000000e+00
0.00000000e+00
0.00000000e+00
0.00000000e+00
0.00000000e+00
0.00000000e+00
0.00000000e+00
0.00000000e+00
0.00000000e+00
0.00000000e+00
0.00000000e+00
0.00000000e+00
0.00000000e+00
0.00000000e+00
0.00000000e+00
0.00000000e+00
0.00000000e+00
0.00000000e+00
0.00000000e+00
0.00000000e+00
0.00000000e+00
0.00000000e+00
0.00000000e+00
0.00000000e+00
0.00000000e+00
0.00000000e+00
0.00000000e+00
0.00000000e+00
0.00000000e+00
0.00000000e+00
0.00000000e+00
0.00000000e+00
0.00000000e+00
0.00000000e+00
0.00000000e+00
0.00000000e+00
0.00000000e+00
0.00000000e+00
0.00000000e+00
0.00000000e+00
0.00000000e+00
0.00000000e+00
0.00000000e+00
0.00000000e+00
0.00000000e+00
0.00000000e+00
0.00000000e+00
0.00000000e+00
0.00000000e+00
0.00000000e+00
0.00000000e+00
0.00000000e+00
0.00000000e+00
0.00000000e+00
0.00000000e+00
0.00000000e+00
0.00000000e+00
0.00000000e+00
0.00000000e+00
0.00000000e+00
0.00000000e+00
0.00000000e+00
0.00000000e+00
0.00000000e+00
0.00000000e+00
0.00000000e+00
0.00000000e+00
0.00000000e+00
0.00000000e+00
0.00000000e+00
0.00000000e+00
0.00000000e+00
0.00000000e+00
0.00000000e+00
0.00000000e+00
0.00000000e+00
0.00000000e+00
0.00000000e+00
0.00000000e+00
0.00000000e+00
0.00000000e+00
0.00000000e+00
0.00000000e+00
0.00000000e+00
0.00000000e+00
0.00000000e+00
0.00000000e+00
0.00000000e+00
0.00000000e+00
0.00000000e+00
0.00000000e+00
0.00000000e+00
0.00000000e+00
0.00000000e+00
0.00000000e+00
0.00000000e+00
0.00000000e+00
0.00000000e+00
0.00000000e+00
0.00000000e+00
0.00000000e+00
0.00000000e+00
0.00000000e+00
0.00000000e+00
0.00000000e+00
0.00000000e+00
0.00000000e+00
0.00000000e+00
0.00000000e+00
0.00000000e+00
0.00000000e+00
0.00000000e+00
0.00000000e+00
0.00000000e+00
0.00000000e+00
0.00000000e+00
0.00000000e+00
0.00000000e+00
0.00000000e+00
0.00000000e+00
0.00000000e+00
0.00000000e+00
0.00000000e+00
0.00000000e+00
0.00000000e+00
0.00000000e+00
0.00000000e+00
0.00000000e+00
0.00000000e+00
0.00000000e+00
0.00000000e+00
0.00000000e+00
0.00000000e+00
0.00000000e+00
0.00000000e+00
0.00000000e+00
0.00000000e+00
0.00000000e+00
0.00000000e+00
0.00000000e+00
0.00000000e+00
0.00000000e+00
0.00000000e+00
0.00000000e+00
0.00000000e+00
0.00000000e+00
0.00000000e+00
0.00000000e+00
0.00000000e+00
0.00000000e+00
0.00000000e+00
0.00000000e+00
0.00000000e+00
0.00000000e+00
0.00000000e+00
0.00000000e+00
0.00000000e+00
0.00000000e+00
0.00000000e+00
0.00000000e+00
0.00000000e+00
0.00000000e+00
0.00000000e+00
0.00000000e+00
0.00000000e+00
0.00000000e+00
0.00000000e+00
0.00000000e+00
0.00000000e+00
0.00000000e+00
0.00000000e+00
0.00000000e+00
0.00000000e+00
0.00000000e+00
0.00000000e+00
0.00000000e+00
0.00000000e+00
0.00000000e+00
0.00000000e+00
0.00000000e+00
0.00000000e+00
0.00000000e+00
0.00000000e+00
0.00000000e+00
0.00000000e+00
0.00000000e+00
0.00000000e+00
0.00000000e+00
0.00000000e+00
0.00000000e+00
0.00000000e+00
0.00000000e+00
0.00000000e+00
0.00000000e+00
0.00000000e+00
0.00000000e+00
0.00000000e+00
0.00000000e+00
0.00000000e+00
0.00000000e+00
0.00000000e+00
0.00000000e+00
0.00000000e+00
0.00000000e+00
0.00000000e+00
0.00000000e+00
0.00000000e+00
0.00000000e+00
0.00000000e+00
0.00000000e+00
0.00000000e+00
0.00000000e+00
0.00000000e+00
0.00000000e+00
0.00000000e+00
0.00000000e+00
0.00000000e+00
0.00000000e+00
0.00000000e+00
0.00000000e+00
0.00000000e+00
0.00000000e+00
0.00000000e+00
0.00000000e+00
0.00000000e+00
0.00000000e+00
0.00000000e+00
0.00000000e+00
0.00000000e+00
0.00000000e+00
0.00000000e+00
0.00000000e+00
0.00000000e+00
0.00000000e+00
0.00000000e+00
0.00000000e+00
0.00000000e+00
0.00000000e+00
0.00000000e+00
0.00000000e+00
0.00000000e+00
0.00000000e+00
0.00000000e+00
0.00000000e+00
0.00000000e+00
0.00000000e+00
0.00000000e+00
0.00000000e+00
0.00000000e+00
0.00000000e+00
0.00000000e+00
0.00000000e+00
0.00000000e+00
0.00000000e+00
0.00000000e+00
0.00000000e+00
0.00000000e+00
0.00000000e+00
0.00000000e+00
0.00000000e+00
0.00000000e+00
0.00000000e+00
0.00000000e+00
0.00000000e+00
0.00000000e+00
0.00000000e+00
0.00000000e+00
0.00000000e+00
0.00000000e+00
0.00000000e+00
0.00000000e+00
0.00000000e+00
0.00000000e+00
0.00000000e+00
0.00000000e+00
0.00000000e+00
0.00000000e+00
0.00000000e+00
0.00000000e+00
0.00000000e+00
0.00000000e+00
0.00000000e+00
0.00000000e+00
0.00000000e+00
0.00000000e+00
0.00000000e+00
0.00000000e+00
0.00000000e+00
0.00000000e+00
0.00000000e+00
0.00000000e+00
0.00000000e+00
0.00000000e+00
0.00000000e+00
0.00000000e+00
0.00000000e+00
0.00000000e+00
0.00000000e+00
0.00000000e+00
0.00000000e+00
0.00000000e+00
0.00000000e+00
0.00000000e+00
0.00000000e+00
0.00000000e+00
0.00000000e+00
0.00000000e+00
0.00000000e+00
0.00000000e+00
0.00000000e+00
0.00000000e+00
0.00000000e+00
0.00000000e+00
0.00000000e+00
0.00000000e+00
0.00000000e+00
0.00000000e+00
0.00000000e+00
0.00000000e+00
0.00000000e+00
0.00000000e+00
0.00000000e+00
0.00000000e+00
0.00000000e+00
0.00000000e+00
0.00000000e+00
0.00000000e+00
0.00000000e+00
0.00000000e+00
0.00000000e+00
0.00000000e+00
0.00000000e+00
0.00000000e+00
0.00000000e+00
0.00000000e+00
0.00000000e+00
0.00000000e+00
0.00000000e+00
0.00000000e+00
0.00000000e+00
0.00000000e+00
0.00000000e+00
0.00000000e+00
0.00000000e+00
0.00000000e+00
0.00000000e+00
0.00000000e+00
0.00000000e+00
0.00000000e+00
0.00000000e+00
0.00000000e+00
0.00000000e+00
0.00000000e+00
0.00000000e+00
0.00000000e+00
0.00000000e+00
0.00000000e+00
0.00000000e+00
0.00000000e+00
0.00000000e+00
0.00000000e+00
0.00000000e+00
0.00000000e+00
0.00000000e+00
0.00000000e+00
0.00000000e+00
0.00000000e+00
0.00000000e+00
0.00000000e+00
0.00000000e+00
0.00000000e+00
0.00000000e+00
0.00000000e+00
0.00000000e+00
0.00000000e+00
0.00000000e+00
0.00000000e+00
0.00000000e+00
0.00000000e+00
0.00000000e+00
0.00000000e+00
0.00000000e+00
0.00000000e+00
0.00000000e+00
0.00000000e+00
0.00000000e+00
0.00000000e+00
0.00000000e+00
0.00000000e+00
0.00000000e+00
0.00000000e+00
0.00000000e+00
0.00000000e+00
0.00000000e+00
0.00000000e+00
0.00000000e+00
0.00000000e+00
0.00000000e+00
0.00000000e+00
0.00000000e+00
0.00000000e+00
0.00000000e+00
0.00000000e+00
0.00000000e+00
-2.91414265e+02
-3.12994587e+02
-3.47561455e+02
-2.26636297e+02
-8.26681481e+01
4.48959265e+00
0.00000000e+00
0.00000000e+00
0.00000000e+00
0.00000000e+00
-2.09122297e+02
-2.49894272e+02
-2.83391066e+02
-2.42130739e+02
-1.30640655e+02
-8.26697287e+01
0.00000000e+00
0.00000000e+00
0.00000000e+00
0.00000000e+00
-1.76555023e+02
-1.90684751e+02
-2.00154346e+02
-1.86374336e+02
-1.33366289e+02
-1.00729541e+02
0.00000000e+00
0.00000000e+00
0.00000000e+00
0.00000000e+00
-1.44015470e+02
-1.42957860e+02
-1.36547081e+02
-1.18527110e+02
-7.95872569e+01
-5.53910855e+01
0.00000000e+00
0.00000000e+00
0.00000000e+00
0.00000000e+00
-1.21201191e+02
-1.11203164e+02
-8.88159488e+01
-4.57611492e+01
1.37604240e+01
4.07531449e+01
0.00000000e+00
0.00000000e+00
0.00000000e+00
0.00000000e+00
-1.11773550e+02
-9.10106554e+01
-5.65345111e+01
5.66604286e+00
1.05918668e+02
1.31335241e+02
0.00000000e+00
0.00000000e+00
0.00000000e+00
0.00000000e+00
-1.02116489e+02
-7.74172535e+01
-4.17322033e+01
8.39503417e+00
6.71757809e+01
9.02408256e+01
0.00000000e+00
0.00000000e+00
0.00000000e+00
0.00000000e+00
-8.00519973e+01
-6.30926776e+01
-3.68545807e+01
-8.47610721e+00
1.69496300e+01
2.84955761e+01
0.00000000e+00
0.00000000e+00
0.00000000e+00
0.00000000e+00
-6.26743467e+01
-5.33331514e+01
-3.66777205e+01
-1.99613641e+01
-7.96033827e+00
-2.35703129e+00
0.00000000e+00
0.00000000e+00
0.00000000e+00
0.00000000e+00
-5.43511523e+01
-4.89430019e+01
-3.88493643e+01
-2.83863926e+01
-2.11156771e+01
-1.79438751e+01
0.00000000e+00
0.00000000e+00
0.00000000e+00
0.00000000e+00
-5.08628339e+01
-4.74719817e+01
-4.09141208e+01
-3.38501803e+01
-2.88466355e+01
-2.66921276e+01
0.00000000e+00
0.00000000e+00
0.00000000e+00
0.00000000e+00
-4.92901640e+01
-4.69226735e+01
-4.22428364e+01
-3.70752666e+01
-3.33289391e+01
-3.17024316e+01
0.00000000e+00
0.00000000e+00
0.00000000e+00
0.00000000e+00
-4.83474044e+01
-4.65207572e+01
-4.28421881e+01
-3.87117184e+01
-3.56720865e+01
-3.43432397e+01
0.00000000e+00
0.00000000e+00
0.00000000e+00
0.00000000e+00
-4.76447405e+01
-4.60824235e+01
-4.28792075e+01
-3.92192592e+01
-3.65078209e+01
-3.53376543e+01
0.00000000e+00
0.00000000e+00
0.00000000e+00
0.00000000e+00
-4.71252568e+01
-4.56576483e+01
-4.25664937e+01
-3.89583919e+01
-3.63333129e+01
-3.52864939e+01
0.00000000e+00
0.00000000e+00
0.00000000e+00
0.00000000e+00
-4.68424027e+01
-4.54076041e+01
-4.22902256e+01
-3.85769007e+01
-3.59640896e+01
-3.50572302e+01
0.00000000e+00
0.00000000e+00
0.00000000e+00
0.00000000e+00
-4.68627585e+01
-4.55138813e+01
-4.25576527e+01
-3.90061365e+01
-3.65016420e+01
-3.56458838e+01
0.00000000e+00
0.00000000e+00
0.00000000e+00
0.00000000e+00
-4.71879112e+01
-4.60050534e+01
-4.34564327e+01
-4.04024154e+01
-3.81472373e+01
-3.72615551e+01
0.00000000e+00
0.00000000e+00
0.00000000e+00
0.00000000e+00
-4.77416265e+01
-4.67404912e+01
-4.46200910e+01
-4.20881675e+01
-4.01319722e+01
-3.92761083e+01
0.00000000e+00
0.00000000e+00
0.00000000e+00
0.00000000e+00
-4.84285895e+01
-4.75777783e+01
-4.57848610e+01
-4.36412515e+01
-4.19491884e+01
-4.11788933e+01
0.00000000e+00
0.00000000e+00
0.00000000e+00
0.00000000e+00
-4.91816826e+01
-4.84456434e+01
-4.68920002e+01
-4.50247472e+01
-4.35339706e+01
-4.28461325e+01
0.00000000e+00
0.00000000e+00
0.00000000e+00
0.00000000e+00
-4.99699563e+01
-4.93228459e+01
-4.79500959e+01
-4.62857910e+01
-4.49435351e+01
-4.43207455e+01
0.00000000e+00
0.00000000e+00
0.00000000e+00
0.00000000e+00
-5.07921662e+01
-5.02181951e+01
-4.89921983e+01
-4.74873724e+01
-4.62601768e+01
-4.56906471e+01
0.00000000e+00
0.00000000e+00
0.00000000e+00
0.00000000e+00
-5.16672056e+01
-5.11580751e+01
-5.00639933e+01
-4.87045709e+01
-4.75839574e+01
-4.70686078e+01
0.00000000e+00
0.00000000e+00
0.00000000e+00
0.00000000e+00
-5.26145619e+01
-5.21669293e+01
-5.12038350e+01
-5.00038118e+01
-4.90121889e+01
-4.85596458e+01
0.00000000e+00
0.00000000e+00
0.00000000e+00
0.00000000e+00
-5.36283804e+01
-5.32409329e+01
-5.24124638e+01
-5.13933429e+01
-5.05626941e+01
-5.01807819e+01
0.00000000e+00
0.00000000e+00
0.00000000e+00
0.00000000e+00
-5.46721093e+01
-5.43427616e+01
-5.36476251e+01
-5.28131358e+01
-5.21483919e+01
-5.18436147e+01
0.00000000e+00
0.00000000e+00
0.00000000e+00
0.00000000e+00
-5.57000581e+01
-5.54249018e+01
-5.48535024e+01
-5.41872377e+01
-5.36723058e+01
-5.34392199e+01
0.00000000e+00
0.00000000e+00
0.00000000e+00
0.00000000e+00
-5.66761479e+01
-5.64495156e+01
-5.59867974e+01
-5.54637797e+01
-5.50736509e+01
-5.49007647e+01
0.00000000e+00
0.00000000e+00
0.00000000e+00
0.00000000e+00
-5.75770703e+01
-5.73922507e+01
-5.70214443e+01
-5.66161710e+01
-5.63261879e+01
-5.62013058e+01
0.00000000e+00
0.00000000e+00
0.00000000e+00
0.00000000e+00
-5.83887347e+01
-5.82388707e+01
-5.79437793e+01
-5.76333505e+01
-5.74223791e+01
-5.73350108e+01
0.00000000e+00
0.00000000e+00
0.00000000e+00
0.00000000e+00
-5.91028384e+01
-5.89815106e+01
-5.87475697e+01
-5.85124744e+01
-5.83632486e+01
-5.83049335e+01
0.00000000e+00
0.00000000e+00
0.00000000e+00
0.00000000e+00
-5.97146890e+01
-5.96161571e+01
-5.94306912e+01
-5.92545866e+01
-5.91531186e+01
-5.91171103e+01
0.00000000e+00
0.00000000e+00
0.00000000e+00
0.00000000e+00
-6.02218271e+01
-6.01410516e+01
-5.99931374e+01
-5.98623216e+01
-5.97971820e+01
-5.97780453e+01
0.00000000e+00
0.00000000e+00
0.00000000e+00
0.00000000e+00
-6.06231301e+01
-6.05556870e+01
-6.04358611e+01
-6.03387059e+01
-6.03003886e+01
-6.02936563e+01
0.00000000e+00
0.00000000e+00
0.00000000e+00
0.00000000e+00
-6.09182224e+01
-6.08601715e+01
-6.07600907e+01
-6.06865193e+01
-6.06669265e+01
-6.06688304e+01
0.00000000e+00
0.00000000e+00
0.00000000e+00
0.00000000e+00
-6.11070250e+01
-6.10548051e+01
-6.09668741e+01
-6.09078997e+01
-6.08999580e+01
-6.09071570e+01
0.00000000e+00
0.00000000e+00
0.00000000e+00
0.00000000e+00
-6.11909653e+01
-6.11408687e+01
-6.10577985e+01
-6.10052198e+01
-6.10027766e+01
-6.10126827e+01
0.00000000e+00
0.00000000e+00
0.00000000e+00
0.00000000e+00
0.00000000e+00
0.00000000e+00
0.00000000e+00
0.00000000e+00
0.00000000e+00
0.00000000e+00
0.00000000e+00
0.00000000e+00
0.00000000e+00
0.00000000e+00
0.00000000e+00
0.00000000e+00
0.00000000e+00
0.00000000e+00
0.00000000e+00
0.00000000e+00
0.00000000e+00
0.00000000e+00
0.00000000e+00
0.00000000e+00
-1.73626530e+02
-1.85280687e+02
-1.77355201e+02
-1.27757307e+02
-7.60541347e+01
-5.35346539e+01
0.00000000e+00
0.00000000e+00
0.00000000e+00
0.00000000e+00
-1.78806603e+02
-1.99393284e+02
-2.00016123e+02
-1.64806299e+02
-1.14135763e+02
-1.17280136e+02
0.00000000e+00
0.00000000e+00
0.00000000e+00
0.00000000e+00
-1.61761062e+02
-1.67779187e+02
-1.80884559e+02
-1.96280523e+02
-1.36272469e+02
-1.06618229e+02
0.00000000e+00
0.00000000e+00
0.00000000e+00
0.00000000e+00
-1.36850854e+02
-1.36224060e+02
-1.42052055e+02
-1.35971300e+02
-9.39596964e+01
-6.25550814e+01
0.00000000e+00
0.00000000e+00
0.00000000e+00
0.00000000e+00
-1.21059827e+02
-1.08863429e+02
-8.96573789e+01
-5.42309259e+01
-1.10396386e+01
6.27692849e+00
0.00000000e+00
0.00000000e+00
0.00000000e+00
0.00000000e+00
-1.23200948e+02
-9.66039677e+01
-6.03535511e+01
-6.40989889e+00
4.45721771e+01
6.11803386e+01
0.00000000e+00
0.00000000e+00
0.00000000e+00
0.00000000e+00
-1.25222779e+02
-8.54465311e+01
-4.32676884e+01
1.19750445e-01
3.75593837e+01
5.00867761e+01
0.00000000e+00
0.00000000e+00
0.00000000e+00
0.00000000e+00
-8.93880309e+01
-6.55677198e+01
-3.41151135e+01
-8.80836118e+00
6.84543878e+00
1.33141960e+01
0.00000000e+00
0.00000000e+00
0.00000000e+00
0.00000000e+00
-6.47585183e+01
-5.48245897e+01
-3.47553826e+01
-1.81200315e+01
-1.05007108e+01
-7.48544031e+00
0.00000000e+00
0.00000000e+00
0.00000000e+00