# vtk DataFile Version 3.0
MPS 3D Simulation Step 800
ASCII
DATASET UNSTRUCTURED_GRID
POINTS 27982 double
-2.40000000e-02 -2.40000000e-02 -2.40000000e-02
-2.40000000e-02 -2.40000000e-02 -1.60000000e-02
-2.40000000e-02 -2.40000000e-02 -8.00000000e-03
-2.40000000e-02 -2.40000000e-02 0.00000000e+00
-2.40000000e-02 -2.40000000e-02 8.00000000e-03
-2.40000000e-02 -2.40000000e-02 1.60000000e-02
-2.40000000e-02 -2.40000000e-02 2.40000000e-02
-2.40000000e-02 -2.40000000e-02 3.20000000e-02
-2.40000000e-02 -2.40000000e-02 4.00000000e-02
-2.40000000e-02 -2.40000000e-02 4.80000000e-02
-2.40000000e-02 -1.60000000e-02 -2.40000000e-02
-2.40000000e-02 -1.60000000e-02 -1.60000000e-02
-2.40000000e-02 -1.60000000e-02 -8.00000000e-03
-2.40000000e-02 -1.60000000e-02 0.00000000e+00
-2.40000000e-02 -1.60000000e-02 8.00000000e-03
-2.40000000e-02 -1.60000000e-02 1.60000000e-02
-2.40000000e-02 -1.60000000e-02 2.40000000e-02
-2.40000000e-02 -1.60000000e-02 3.20000000e-02
-2.40000000e-02 -1.60000000e-02 4.00000000e-02
-2.40000000e-02 -1.60000000e-02 4.80000000e-02
-2.40000000e-02 -8.00000000e-03 -2.40000000e-02
-2.40000000e-02 -8.00000000e-03 -1.60000000e-02
-2.40000000e-02 -8.00000000e-03 -8.00000000e-03
-2.40000000e-02 -8.00000000e-03 0.00000000e+00
-2.40000000e-02 -8.00000000e-03 8.00000000e-03
-2.40000000e-02 -8.00000000e-03 1.60000000e-02
-2.40000000e-02 -8.00000000e-03 2.40000000e-02
-2.40000000e-02 -8.00000000e-03 3.20000000e-02
-2.40000000e-02 -8.00000000e-03 4.00000000e-02
-2.40000000e-02 -8.00000000e-03 4.80000000e-02
-2.40000000e-02 0.00000000e+00 -2.40000000e-02
-2.40000000e-02 0.00000000e+00 -1.60000000e-02
-2.40000000e-02 0.00000000e+00 -8.00000000e-03
-2.40000000e-02 0.00000000e+00 0.00000000e+00
-2.40000000e-02 0.00000000e+00 8.00000000e-03
-2.40000000e-02 0.00000000e+00 1.60000000e-02
-2.40000000e-02 0.00000000e+00 2.40000000e-02
-2.40000000e-02 0.00000000e+00 3.20000000e-02
-2.40000000e-02 0.00000000e+00 4.00000000e-02
-2.40000000e-02 0.00000000e+00 4.80000000e-02
-2.40000000e-02 8.00000000e-03 -2.40000000e-02
-2.40000000e-02 8.00000000e-03 -1.60000000e-02
-2.40000000e-02 8.00000000e-03 -8.00000000e-03
-2.40000000e-02 8.00000000e-03 0.00000000e+00
-2.40000000e-02 8.00000000e-03 8.00000000e-03
-2.40000000e-02 8.00000000e-03 1.60000000e-02
-2.40000000e-02 8.00000000e-03 2.40000000e-02
-2.40000000e-02 8.00000000e-03 3.20000000e-02
-2.40000000e-02 8.00000000e-03 4.00000000e-02
-2.40000000e-02 8.00000000e-03 4.80000000e-02
-2.40000000e-02 1.60000000e-02 -2.40000000e-02
-2.40000000e-02 1.60000000e-02 -1.60000000e-02
-2.40000000e-02 1.60000000e-02 -8.00000000e-03
-2.40000000e-02 1.60000000e-02 0.00000000e+00
-2.40000000e-02 1.60000000e-02 8.00000000e-03
-2.40000000e-02 1.60000000e-02 1.60000000e-02
-2.40000000e-02 1.60000000e-02 2.40000000e-02
-2.40000000e-02 1.60000000e-02 3.20000000e-02
-2.40000000e-02 1.60000000e-02 4.00000000e-02
-2.40000000e-02 1.60000000e-02 4.80000000e-02
-2.40000000e-02 2.40000000e-02 -2.40000000e-02
-2.40000000e-02 2.40000000e-02 -1.60000000e-02
-2.40000000e-02 2.40000000e-02 -8.00000000e-03
-2.40000000e-02 2.40000000e-02 0.00000000e+00
-2.40000000e-02 2.40000000e-02 8.00000000e-03
-2.40000000e-02 2.40000000e-02 1.60000000e-02
-2.40000000e-02 2.40000000e-02 2.40000000e-02
-2.40000000e-02 2.40000000e-02 3.20000000e-02
-2.40000000e-02 2.40000000e-02 4.00000000e-02
-2.40000000e-02 2.40000000e-02 4.80000000e-02
-2.40000000e-02 3.20000000e-02 -2.40000000e-02
-2.40000000e-02 3.20000000e-02 -1.60000000e-02
-2.40000000e-02 3.20000000e-02 -8.00000000e-03
-2.40000000e-02 3.20000000e-02 0.00000000e+00
-2.40000000e-02 3.20000000e-02 8.00000000e-03
-2.40000000e-02 3.20000000e-02 1.60000000e-02
-2.40000000e-02 3.20000000e-02 2.40000000e-02
-2.40000000e-02 3.20000000e-02 3.20000000e-02
-2.40000000e-02 3.20000000e-02 4.00000000e-02
-2.40000000e-02 3.20000000e-02 4.80000000e-02
-2.40000000e-02 4.00000000e-02 -2.40000000e-02
-2.40000000e-02 4.00000000e-02 -1.60000000e-02
-2.40000000e-02 4.00000000e-02 -8.00000000e-03
-2.40000000e-02 4.00000000e-02 0.00000000e+00
-2.40000000e-02 4.00000000e-02 8.00000000e-03
-2.40000000e-02 4.00000000e-02 1.60000000e-02
-2.40000000e-02 4.00000000e-02 2.40000000e-02
-2.40000000e-02 4.00000000e-02 3.20000000e-02
-2.40000000e-02 4.00000000e-02 4.00000000e-02
-2.40000000e-02 4.00000000e-02 4.80000000e-02
-2.40000000e-02 4.80000000e-02 -2.40000000e-02
-2.40000000e-02 4.80000000e-02 -1.60000000e-02
-2.40000000e-02 4.80000000e-02 -8.00000000e-03
-2.40000000e-02 4.80000000e-02 0.00000000e+00
-2.40000000e-02 4.80000000e-02 8.00000000e-03
-2.40000000e-02 4.80000000e-02 1.60000000e-02
-2.40000000e-02 4.80000000e-02 2.40000000e-02
-2.40000000e-02 4.80000000e-02 3.20000000e-02
-2.40000000e-02 4.80000000e-02 4.00000000e-02
-2.40000000e-02 4.80000000e-02 4.80000000e-02
-2.40000000e-02 5.60000000e-02 -2.40000000e-02
-2.40000000e-02 5.60000000e-02 -1.60000000e-02
-2.40000000e-02 5.60000000e-02 -8.00000000e-03
-2.40000000e-02 5.60000000e-02 0.00000000e+00
-2.40000000e-02 5.60000000e-02 8.00000000e-03
-2.40000000e-02 5.60000000e-02 1.60000000e-02
-2.40000000e-02 5.60000000e-02 2.40000000e-02
-2.40000000e-02 5.60000000e-02 3.20000000e-02
-2.40000000e-02 5.60000000e-02 4.00000000e-02
-2.40000000e-02 5.60000000e-02 4.80000000e-02
-2.40000000e-02 6.40000000e-02 -2.40000000e-02
-2.40000000e-02 6.40000000e-02 -1.60000000e-02
-2.40000000e-02 6.40000000e-02 -8.00000000e-03
-2.40000000e-02 6.40000000e-02 0.00000000e+00
-2.40000000e-02 6.40000000e-02 8.00000000e-03
-2.40000000e-02 6.40000000e-02 1.60000000e-02
-2.40000000e-02 6.40000000e-02 2.40000000e-02
-2.40000000e-02 6.40000000e-02 3.20000000e-02
-2.40000000e-02 6.40000000e-02 4.00000000e-02
-2.40000000e-02 6.40000000e-02 4.80000000e-02
-2.40000000e-02 7.20000000e-02 -2.40000000e-02
-2.40000000e-02 7.20000000e-02 -1.60000000e-02
-2.40000000e-02 7.20000000e-02 -8.00000000e-03
-2.40000000e-02 7.20000000e-02 0.00000000e+00
-2.40000000e-02 7.20000000e-02 8.00000000e-03
-2.40000000e-02 7.20000000e-02 1.60000000e-02
-2.40000000e-02 7.20000000e-02 2.40000000e-02
-2.40000000e-02 7.20000000e-02 3.20000000e-02
-2.40000000e-02 7.20000000e-02 4.00000000e-02
-2.40000000e-02 7.20000000e-02 4.80000000e-02
-2.40000000e-02 8.00000000e-02 -2.40000000e-02
-2.40000000e-02 8.00000000e-02 -1.60000000e-02
-2.40000000e-02 8.00000000e-02 -8.00000000e-03
-2.40000000e-02 8.00000000e-02 0.00000000e+00
-2.40000000e-02 8.00000000e-02 8.00000000e-03
-2.40000000e-02 8.00000000e-02 1.60000000e-02
-2.40000000e-02 8.00000000e-02 2.40000000e-02
-2.40000000e-02 8.00000000e-02 3.20000000e-02
-2.40000000e-02 8.00000000e-02 4.00000000e-02
-2.40000000e-02 8.00000000e-02 4.80000000e-02
-2.40000000e-02 8.80000000e-02 -2.40000000e-02
-2.40000000e-02 8.80000000e-02 -1.60000000e-02
-2.40000000e-02 8.80000000e-02 -8.00000000e-03
-2.40000000e-02 8.80000000e-02 0.00000000e+00
-2.40000000e-02 8.80000000e-02 8.00000000e-03
-2.40000000e-02 8.80000000e-02 1.60000000e-02
-2.40000000e-02 8.80000000e-02 2.40000000e-02
-2.40000000e-02 8.80000000e-02 3.20000000e-02
-2.40000000e-02 8.80000000e-02 4.00000000e-02
-2.40000000e-02 8.80000000e-02 4.80000000e-02
-2.40000000e-02 9.60000000e-02 -2.40000000e-02
-2.40000000e-02 9.60000000e-02 -1.60000000e-02
-2.40000000e-02 9.60000000e-02 -8.00000000e-03
-2.40000000e-02 9.60000000e-02 0.00000000e+00
-2.40000000e-02 9.60000000e-02 8.00000000e-03
-2.40000000e-02 9.60000000e-02 1.60000000e-02
-2.40000000e-02 9.60000000e-02 2.40000000e-02
-2.40000000e-02 9.60000000e-02 3.20000000e-02
-2.40000000e-02 9.60000000e-02 4.00000000e-02
-2.40000000e-02 9.60000000e-02 4.80000000e-02
-2.40000000e-02 1.04000000e-01 -2.40000000e-02
-2.40000000e-02 1.04000000e-01 -1.60000000e-02
-2.40000000e-02 1.04000000e-01 -8.00000000e-03
-2.40000000e-02 1.04000000e-01 0.00000000e+00
-2.40000000e-02 1.04000000e-01 8.00000000e-03
-2.40000000e-02 1.04000000e-01 1.60000000e-02
-2.40000000e-02 1.04000000e-01 2.40000000e-02
-2.40000000e-02 1.04000000e-01 3.20000000e-02
-2.40000000e-02 1.04000000e-01 4.00000000e-02
-2.40000000e-02 1.04000000e-01 4.80000000e-02
-2.40000000e-02 1.12000000e-01 -2.40000000e-02
-2.40000000e-02 1.12000000e-01 -1.60000000e-02
-2.40000000e-02 1.12000000e-01 -8.00000000e-03
-2.40000000e-02 1.12000000e-01 0.00000000e+00
-2.40000000e-02 1.12000000e-01 8.00000000e-03
-2.40000000e-02 1.12000000e-01 1.60000000e-02
-2.40000000e-02 1.12000000e-01 2.40000000e-02
-2.40000000e-02 1.12000000e-01 3.20000000e-02
-2.40000000e-02 1.12000000e-01 4.00000000e-02
-2.40000000e-02 1.12000000e-01 4.80000000e-02
-2.40000000e-02 1.20000000e-01 -2.40000000e-02
-2.40000000e-02 1.20000000e-01 -1.60000000e-02
-2.40000000e-02 1.20000000e-01 -8.00000000e-03
-2.40000000e-02 1.20000000e-01 0.00000000e+00
-2.40000000e-02 1.20000000e-01 8.00000000e-03
-2.40000000e-02 1.20000000e-01 1.60000000e-02
-2.40000000e-02 1.20000000e-01 2.40000000e-02
-2.40000000e-02 1.20000000e-01 3.20000000e-02
-2.40000000e-02 1.20000000e-01 4.00000000e-02
-2.40000000e-02 1.20000000e-01 4.80000000e-02
-2.40000000e-02 1.28000000e-01 -2.40000000e-02
-2.40000000e-02 1.28000000e-01 -1.60000000e-02
-2.40000000e-02 1.28000000e-01 -8.00000000e-03
-2.40000000e-02 1.28000000e-01 0.00000000e+00
-2.40000000e-02 1.28000000e-01 8.00000000e-03
-2.40000000e-02 1.28000000e-01 1.60000000e-02
-2.40000000e-02 1.28000000e-01 2.40000000e-02
-2.40000000e-02 1.28000000e-01 3.20000000e-02
-2.40000000e-02 1.28000000e-01 4.00000000e-02
-2.40000000e-02 1.28000000e-01 4.80000000e-02
-2.40000000e-02 1.36000000e-01 -2.40000000e-02
-2.40000000e-02 1.36000000e-01 -1.60000000e-02
-2.40000000e-02 1.36000000e-01 -8.00000000e-03
-2.40000000e-02 1.36000000e-01 0.00000000e+00
-2.40000000e-02 1.36000000e-01 8.00000000e-03
-2.40000000e-02 1.36000000e-01 1.60000000e-02
-2.40000000e-02 1.36000000e-01 2.40000000e-02
-2.40000000e-02 1.36000000e-01 3.20000000e-02
-2.40000000e-02 1.36000000e-01 4.00000000e-02
-2.40000000e-02 1.36000000e-01 4.80000000e-02
-2.40000000e-02 1.44000000e-01 -2.40000000e-02
-2.40000000e-02 1.44000000e-01 -1.60000000e-02
-2.40000000e-02 1.44000000e-01 -8.00000000e-03
[...]
POINT_DATA 27982
SCALARS pressure double 1
LOOKUP_TABLE default
0.00000000e+00
0.00000000e+00
0.00000000e+00
0.00000000e+00
0.00000000e+00
0.00000000e+00
0.00000000e+00
0.00000000e+00
0.00000000e+00
0.00000000e+00
0.00000000e+00
0.00000000e+00
0.00000000e+00
0.00000000e+00
0.00000000e+00
0.00000000e+00
0.00000000e+00
0.00000000e+00
0.00000000e+00
0.00000000e+00
0.00000000e+00
0.00000000e+00
0.00000000e+00
0.00000000e+00
0.00000000e+00
0.00000000e+00
0.00000000e+00
0.00000000e+00
0.00000000e+00
0.00000000e+00
0.00000000e+00
0.00000000e+00
0.00000000e+00
0.00000000e+00
0.00000000e+00
0.00000000e+00
0.00000000e+00
0.00000000e+00
0.00000000e+00
0.00000000e+00
0.00000000e+00
0.00000000e+00
0.00000000e+00
0.00000000e+00
0.00000000e+00
0.00000000e+00
0.00000000e+00
0.00000000e+00
0.00000000e+00
0.00000000e+00
0.00000000e+00
0.00000000e+00
0.00000000e+00
0.00000000e+00
0.00000000e+00
0.00000000e+00
0.00000000e+00
0.00000000e+00
0.00000000e+00
0.00000000e+00
0.00000000e+00
0.00000000e+00
0.00000000e+00
0.00000000e+00
0.00000000e+00
0.00000000e+00
0.00000000e+00
0.00000000e+00
0.00000000e+00
0.00000000e+00
0.00000000e+00
0.00000000e+00
0.00000000e+00
0.00000000e+00
0.00000000e+00
0.00000000e+00
0.00000000e+00
0.00000000e+00
0.00000000e+00
0.00000000e+00
0.00000000e+00
0.00000000e+00
0.00000000e+00
0.00000000e+00
0.00000000e+00
0.00000000e+00
0.00000000e+00
0.00000000e+00
0.00000000e+00
0.00000000e+00
0.00000000e+00
0.00000000e+00
0.00000000e+00
0.00000000e+00
0.00000000e+00
0.00000000e+00
0.00000000e+00
0.00000000e+00
0.00000000e+00
0.00000000e+00
0.00000000e+00
0.00000000e+00
0.00000000e+00
0.00000000e+00
0.00000000e+00
0.00000000e+00
0.00000000e+00
0.00000000e+00
0.00000000e+00
0.00000000e+00
0.00000000e+00
0.00000000e+00
0.00000000e+00
0.00000000e+00
0.00000000e+00
0.00000000e+00
0.00000000e+00
0.00000000e+00
0.00000000e+00
0.00000000e+00
0.00000000e+00
0.00000000e+00
0.00000000e+00
0.00000000e+00
0.00000000e+00
0.00000000e+00
0.00000000e+00
0.00000000e+00
0.00000000e+00
0.00000000e+00
0.00000000e+00
0.00000000e+00
0.00000000e+00
0.00000000e+00
0.00000000e+00
0.00000000e+00
0.00000000e+00
0.00000000e+00
0.00000000e+00
0.00000000e+00
0.00000000e+00
0.00000000e+00
0.00000000e+00
0.00000000e+00
0.00000000e+00
0.00000000e+00
0.00000000e+00
0.00000000e+00
0.00000000e+00
0.00000000e+00
0.00000000e+00
0.00000000e+00
0.00000000e+00
0.00000000e+00
0.00000000e+00
0.00000000e+00
0.00000000e+00
0.00000000e+00
0.00000000e+00
0.00000000e+00
0.00000000e+00
0.00000000e+00
0.00000000e+00
0.00000000e+00
0.00000000e+00
0.00000000e+00
0.00000000e+00
0.00000000e+00
0.00000000e+00
0.00000000e+00
0.00000000e+00
0.00000000e+00
0.00000000e+00
0.00000000e+00
0.00000000e+00
0.00000000e+00
0.00000000e+00
0.00000000e+00
0.00000000e+00
0.00000000e+00
0.00000000e+00
0.00000000e+00
0.00000000e+00
0.00000000e+00
0.00000000e+00
0.00000000e+00
0.00000000e+00
0.00000000e+00
0.00000000e+00
0.00000000e+00
0.00000000e+00
0.00000000e+00
0.00000000e+00
0.00000000e+00
0.00000000e+00
0.00000000e+00
0.00000000e+00
0.00000000e+00
0.00000000e+00
0.00000000e+00
0.00000000e+00
0.00000000e+00
0.00000000e+00
0.00000000e+00
0.00000000e+00
0.00000000e+00
0.00000000e+00
0.00000000e+00
0.00000000e+00
0.00000000e+00
0.00000000e+00
0.00000000e+00
0.00000000e+00
0.00000000e+00
0.00000000e+00
0.00000000e+00
0.00000000e+00
0.00000000e+00
0.00000000e+00
0.00000000e+00
0.00000000e+00
0.00000000e+00
0.00000000e+00
0.00000000e+00
0.00000000e+00
0.00000000e+00
0.00000000e+00
0.00000000e+00
0.00000000e+00
0.00000000e+00
0.00000000e+00
0.00000000e+00
0.00000000e+00
0.00000000e+00
0.00000000e+00
0.00000000e+00
0.00000000e+00
0.00000000e+00
0.00000000e+00
0.00000000e+00
0.00000000e+00
0.00000000e+00
0.00000000e+00
0.00000000e+00
0.00000000e+00
0.00000000e+00
0.00000000e+00
0.00000000e+00
0.00000000e+00
0.00000000e+00
0.00000000e+00
0.00000000e+00
0.00000000e+00
0.00000000e+00
0.00000000e+00
0.00000000e+00
0.00000000e+00
0.00000000e+00
0.00000000e+00
0.00000000e+00
0.00000000e+00
0.00000000e+00
0.00000000e+00
0.00000000e+00
0.00000000e+00
0.00000000e+00
0.00000000e+00
0.00000000e+00
0.00000000e+00
0.00000000e+00
0.00000000e+00
0.00000000e+00
0.00000000e+00
0.00000000e+00
0.00000000e+00
0.00000000e+00
0.00000000e+00
0.00000000e+00
0.00000000e+00
0.00000000e+00
0.00000000e+00
0.00000000e+00
0.00000000e+00
0.00000000e+00
0.00000000e+00
0.00000000e+00
0.00000000e+00
0.00000000e+00
0.00000000e+00
0.00000000e+00
0.00000000e+00
0.00000000e+00
0.00000000e+00
0.00000000e+00
0.00000000e+00
0.00000000e+00
0.00000000e+00
0.00000000e+00
0.00000000e+00
0.00000000e+00
0.00000000e+00
0.00000000e+00
0.00000000e+00
0.00000000e+00
0.00000000e+00
0.00000000e+00
0.00000000e+00
0.00000000e+00
0.00000000e+00
0.00000000e+00
0.00000000e+00
0.00000000e+00
0.00000000e+00
0.00000000e+00
0.00000000e+00
0.00000000e+00
0.00000000e+00
0.00000000e+00
0.00000000e+00
0.00000000e+00
0.00000000e+00
0.00000000e+00
0.00000000e+00
0.00000000e+00
0.00000000e+00
0.00000000e+00
0.00000000e+00
0.00000000e+00
0.00000000e+00
0.00000000e+00
0.00000000e+00
0.00000000e+00
0.00000000e+00
0.00000000e+00
0.00000000e+00
0.00000000e+00
0.00000000e+00
0.00000000e+00
0.00000000e+00
0.00000000e+00
0.00000000e+00
0.00000000e+00
0.00000000e+00
0.00000000e+00
0.00000000e+00
0.00000000e+00
0.00000000e+00
0.00000000e+00
0.00000000e+00
0.00000000e+00
0.00000000e+00
0.00000000e+00
0.00000000e+00
0.00000000e+00
0.00000000e+00
0.00000000e+00
0.00000000e+00
0.00000000e+00
0.00000000e+00
0.00000000e+00
0.00000000e+00
0.00000000e+00
0.00000000e+00
0.00000000e+00
0.00000000e+00
0.00000000e+00
0.00000000e+00
0.00000000e+00
0.00000000e+00
0.00000000e+00
0.00000000e+00
0.00000000e+00
0.00000000e+00
0.00000000e+00
0.00000000e+00
0.00000000e+00
0.00000000e+00
0.00000000e+00
0.00000000e+00
0.00000000e+00
0.00000000e+00
0.00000000e+00
0.00000000e+00
0.00000000e+00
0.00000000e+00
0.00000000e+00
0.00000000e+00
0.00000000e+00
0.00000000e+00
0.00000000e+00
0.00000000e+00
0.00000000e+00
0.00000000e+00
0.00000000e+00
0.00000000e+00
0.00000000e+00
0.00000000e+00
0.00000000e+00
0.00000000e+00
0.00000000e+00
0.00000000e+00
0.00000000e+00
0.00000000e+00
0.00000000e+00
0.00000000e+00
0.00000000e+00
0.00000000e+00
0.00000000e+00
0.00000000e+00
0.00000000e+00
0.00000000e+00
0.00000000e+00
0.00000000e+00
0.00000000e+00
0.00000000e+00
0.00000000e+00
0.00000000e+00
0.00000000e+00
0.00000000e+00
0.00000000e+00
0.00000000e+00
0.00000000e+00
0.00000000e+00
0.00000000e+00
0.00000000e+00
0.00000000e+00
0.00000000e+00
0.00000000e+00
0.00000000e+00
0.00000000e+00
0.00000000e+00
0.00000000e+00
0.00000000e+00
0.00000000e+00
0.00000000e+00
0.00000000e+00
0.00000000e+00
0.00000000e+00
0.00000000e+00
0.00000000e+00
0.00000000e+00
0.00000000e+00
0.00000000e+00
0.00000000e+00
0.00000000e+00
0.00000000e+00
0.00000000e+00
0.00000000e+00
0.00000000e+00
0.00000000e+00
0.00000000e+00
0.00000000e+00
0.00000000e+00
0.00000000e+00
0.00000000e+00
0.00000000e+00
0.00000000e+00
0.00000000e+00
0.00000000e+00
0.00000000e+00
0.00000000e+00
0.00000000e+00
0.00000000e+00
0.00000000e+00
0.00000000e+00
0.00000000e+00
0.00000000e+00
0.00000000e+00
0.00000000e+00
0.00000000e+00
0.00000000e+00
0.00000000e+00
0.00000000e+00
0.00000000e+00
0.00000000e+00
0.00000000e+00
0.00000000e+00
0.00000000e+00
0.00000000e+00
0.00000000e+00
0.00000000e+00
0.00000000e+00
0.00000000e+00
0.00000000e+00
0.00000000e+00
0.00000000e+00
0.00000000e+00
0.00000000e+00
0.00000000e+00
0.00000000e+00
0.00000000e+00
0.00000000e+00
0.00000000e+00
0.00000000e+00
0.00000000e+00
0.00000000e+00
0.00000000e+00
0.00000000e+00
0.00000000e+00
0.00000000e+00
0.00000000e+00
0.00000000e+00
0.00000000e+00
0.00000000e+00
0.00000000e+00
0.00000000e+00
0.00000000e+00
0.00000000e+00
0.00000000e+00
0.00000000e+00
0.00000000e+00
0.00000000e+00
0.00000000e+00
0.00000000e+00
0.00000000e+00
0.00000000e+00
0.00000000e+00
0.00000000e+00
0.00000000e+00
0.00000000e+00
0.00000000e+00
0.00000000e+00
0.00000000e+00
0.00000000e+00
0.00000000e+00
0.00000000e+00
0.00000000e+00
0.00000000e+00
0.00000000e+00
0.00000000e+00
0.00000000e+00
0.00000000e+00
0.00000000e+00
0.00000000e+00
0.00000000e+00
0.00000000e+00
0.00000000e+00
0.00000000e+00
0.00000000e+00
0.00000000e+00
0.00000000e+00
0.00000000e+00
0.00000000e+00
0.00000000e+00
0.00000000e+00
0.00000000e+00
0.00000000e+00
0.00000000e+00
0.00000000e+00
0.00000000e+00
0.00000000e+00
0.00000000e+00
0.00000000e+00
0.00000000e+00
0.00000000e+00
0.00000000e+00
0.00000000e+00
0.00000000e+00
0.00000000e+00
0.00000000e+00
0.00000000e+00
0.00000000e+00
0.00000000e+00
0.00000000e+00
0.00000000e+00
0.00000000e+00
0.00000000e+00
0.00000000e+00
0.00000000e+00
0.00000000e+00
0.00000000e+00
0.00000000e+00
0.00000000e+00
0.00000000e+00
0.00000000e+00
0.00000000e+00
0.00000000e+00
0.00000000e+00
0.00000000e+00
0.00000000e+00
0.00000000e+00
0.00000000e+00
0.00000000e+00
0.00000000e+00
0.00000000e+00
0.00000000e+00
0.00000000e+00
0.00000000e+00
0.00000000e+00
0.00000000e+00
0.00000000e+00
0.00000000e+00
0.00000000e+00
0.00000000e+00
0.00000000e+00
0.00000000e+00
0.00000000e+00
0.00000000e+00
0.00000000e+00
0.00000000e+00
0.00000000e+00
0.00000000e+00
0.00000000e+00
0.00000000e+00
0.00000000e+00
0.00000000e+00
0.00000000e+00
0.00000000e+00
0.00000000e+00
0.00000000e+00
0.00000000e+00
0.00000000e+00
0.00000000e+00
0.00000000e+00
0.00000000e+00
0.00000000e+00
0.00000000e+00
0.00000000e+00
0.00000000e+00
0.00000000e+00
0.00000000e+00
0.00000000e+00
0.00000000e+00
0.00000000e+00
0.00000000e+00
0.00000000e+00
0.00000000e+00
0.00000000e+00
0.00000000e+00
0.00000000e+00
0.00000000e+00
0.00000000e+00
0.00000000e+00
0.00000000e+00
0.00000000e+00
0.00000000e+00
0.00000000e+00
0.00000000e+00
0.00000000e+00
0.00000000e+00
0.00000000e+00
0.00000000e+00
0.00000000e+00
0.00000000e+00
0.00000000e+00
0.00000000e+00
0.00000000e+00
0.00000000e+00
0.00000000e+00
0.00000000e+00
0.00000000e+00
0.00000000e+00
0.00000000e+00
0.00000000e+00
0.00000000e+00
0.00000000e+00
0.00000000e+00
0.00000000e+00
0.00000000e+00
0.00000000e+00
0.00000000e+00
0.00000000e+00
0.00000000e+00
0.00000000e+00
0.00000000e+00
0.00000000e+00
0.00000000e+00
0.00000000e+00
0.00000000e+00
0.00000000e+00
0.00000000e+00
0.00000000e+00
0.00000000e+00
0.00000000e+00
0.00000000e+00
0.00000000e+00
0.00000000e+00
0.00000000e+00
0.00000000e+00
0.00000000e+00
0.00000000e+00
0.00000000e+00
0.00000000e+00
0.00000000e+00
0.00000000e+00
0.00000000e+00
0.00000000e+00
0.00000000e+00
0.00000000e+00
0.00000000e+00
0.00000000e+00
0.00000000e+00
0.00000000e+00
0.00000000e+00
0.00000000e+00
0.00000000e+00
0.00000000e+00
0.00000000e+00
0.00000000e+00
0.00000000e+00
0.00000000e+00
0.00000000e+00
0.00000000e+00
0.00000000e+00
0.00000000e+00
0.00000000e+00
0.00000000e+00
0.00000000e+00
0.00000000e+00
0.00000000e+00
0.00000000e+00
0.00000000e+00
0.00000000e+00
0.00000000e+00
0.00000000e+00
0.00000000e+00
0.00000000e+00
0.00000000e+00
0.00000000e+00
0.00000000e+00
0.00000000e+00
0.00000000e+00
0.00000000e+00
0.00000000e+00
0.00000000e+00
0.00000000e+00
0.00000000e+00
0.00000000e+00
0.00000000e+00
0.00000000e+00
0.00000000e+00
0.00000000e+00
0.00000000e+00
0.00000000e+00
0.00000000e+00
0.00000000e+00
0.00000000e+00
0.00000000e+00
0.00000000e+00
0.00000000e+00
0.00000000e+00
0.00000000e+00
0.00000000e+00
0.00000000e+00
0.00000000e+00
0.00000000e+00
0.00000000e+00
0.00000000e+00
0.00000000e+00
0.00000000e+00
0.00000000e+00
0.00000000e+00
0.00000000e+00
0.00000000e+00
0.00000000e+00
0.00000000e+00
0.00000000e+00
0.00000000e+00
0.00000000e+00
0.00000000e+00
0.00000000e+00
0.00000000e+00
0.00000000e+00
0.00000000e+00
0.00000000e+00
0.00000000e+00
0.00000000e+00
0.00000000e+00
0.00000000e+00
0.00000000e+00
0.00000000e+00
0.00000000e+00
0.00000000e+00
0.00000000e+00
0.00000000e+00
0.00000000e+00
0.00000000e+00
0.00000000e+00
0.00000000e+00
0.00000000e+00
0.00000000e+00
0.00000000e+00
0.00000000e+00
0.00000000e+00
0.00000000e+00
0.00000000e+00
0.00000000e+00
0.00000000e+00
0.00000000e+00
0.00000000e+00
0.00000000e+00
0.00000000e+00
0.00000000e+00
0.00000000e+00
0.00000000e+00
0.00000000e+00
0.00000000e+00
0.00000000e+00
0.00000000e+00
0.00000000e+00
0.00000000e+00
0.00000000e+00
0.00000000e+00
0.00000000e+00
0.00000000e+00
0.00000000e+00
0.00000000e+00
0.00000000e+00
0.00000000e+00
0.00000000e+00
0.00000000e+00
0.00000000e+00
0.00000000e+00
0.00000000e+00
0.00000000e+00
0.00000000e+00
0.00000000e+00
0.00000000e+00
0.00000000e+00
0.00000000e+00
0.00000000e+00
0.00000000e+00
-4.86244322e+02
-3.12051472e+02
-3.93841222e+02
-8.25452509e+02
-9.79616252e+02
-8.93103762e+02
0.00000000e+00
0.00000000e+00
0.00000000e+00
0.00000000e+00
-5.84484940e+02
-5.89785713e+02
-6.75932421e+02
-8.66996533e+02
-9.62923174e+02
-8.89462788e+02
0.00000000e+00
0.00000000e+00
0.00000000e+00
0.00000000e+00
-8.22321541e+02
-1.02705010e+03
-1.00831165e+03
-8.28227564e+02
-8.18009975e+02
-8.89458071e+02
0.00000000e+00
0.00000000e+00
0.00000000e+00
0.00000000e+00
-8.48794616e+02
-1.07340392e+03
-1.01669728e+03
-7.17903145e+02
-6.55017080e+02
-7.90084293e+02
0.00000000e+00
0.00000000e+00
0.00000000e+00
0.00000000e+00
-6.04265670e+02
-6.78380233e+02
-6.42404467e+02
-5.00032430e+02
-4.38411082e+02
-4.36199901e+02
0.00000000e+00
0.00000000e+00
0.00000000e+00
0.00000000e+00
-3.64821939e+02
-3.59991110e+02
-3.24034822e+02
-2.73291361e+02
-2.38667835e+02
-2.14532982e+02
0.00000000e+00
0.00000000e+00
0.00000000e+00
0.00000000e+00
-1.80420099e+02
-1.67155644e+02
-1.34712640e+02
-1.00119076e+02
-9.88622111e+01
-1.06234298e+02
0.00000000e+00
0.00000000e+00
0.00000000e+00
0.00000000e+00
-4.71675421e+01
-4.25894896e+01
-3.39673546e+01
-2.14914275e+01
-3.19891893e+01
-4.38660880e+01
0.00000000e+00
0.00000000e+00
0.00000000e+00
0.00000000e+00
3.78837418e+01
3.00684538e+01
1.07654893e+01
1.11261358e-01
-8.38655747e+00
-1.34672486e+01
0.00000000e+00
0.00000000e+00
0.00000000e+00
0.00000000e+00
5.24758582e+01
4.31903394e+01
2.23764282e+01
9.67236450e+00
3.86172730e+00
1.87056922e+00
0.00000000e+00
0.00000000e+00
0.00000000e+00
0.00000000e+00
3.22171841e+01
2.76784930e+01
1.88027020e+01
1.32881073e+01
1.07743713e+01
1.02130452e+01
0.00000000e+00
0.00000000e+00
0.00000000e+00
0.00000000e+00
1.81266121e+01
1.72123448e+01
1.55147945e+01
1.42455278e+01
1.38727406e+01
1.38803940e+01
0.00000000e+00
0.00000000e+00
0.00000000e+00
0.00000000e+00
1.28160982e+01
1.31294077e+01
1.35891316e+01
1.41007400e+01
1.43942711e+01
1.43294458e+01
0.00000000e+00
0.00000000e+00
0.00000000e+00
0.00000000e+00
1.14255660e+01
1.19337466e+01
1.28634307e+01
1.37457839e+01
1.39981858e+01
1.36877064e+01
0.00000000e+00
0.00000000e+00
0.00000000e+00
0.00000000e+00
1.15075240e+01
1.19742031e+01
1.28998941e+01
1.38099031e+01
1.41499551e+01
1.39760063e+01
0.00000000e+00
0.00000000e+00
0.00000000e+00
0.00000000e+00
1.20522289e+01
1.24782359e+01
1.33580485e+01
1.43423777e+01
1.49810729e+01
1.51491534e+01
0.00000000e+00
0.00000000e+00
0.00000000e+00
0.00000000e+00
1.26919008e+01
1.30886991e+01
1.39453073e+01
1.50083025e+01
1.58696969e+01
1.62476041e+01
0.00000000e+00
0.00000000e+00
0.00000000e+00
0.00000000e+00
1.32654334e+01
1.36389875e+01
1.44649315e+01
1.55356422e+01
1.64579653e+01
1.68961244e+01
0.00000000e+00
0.00000000e+00
0.00000000e+00
0.00000000e+00
1.37146012e+01
1.40622210e+01
1.48352106e+01
1.58457648e+01
1.67249452e+01
1.71495326e+01
0.00000000e+00
0.00000000e+00
0.00000000e+00
0.00000000e+00
1.40296419e+01
1.43468480e+01
1.50498649e+01
1.59638217e+01
1.67545316e+01
1.71366334e+01
0.00000000e+00
0.00000000e+00
0.00000000e+00
0.00000000e+00
1.42230566e+01
1.45074773e+01
1.51338160e+01
1.59400452e+01
1.66307902e+01
1.69632969e+01
0.00000000e+00
0.00000000e+00
0.00000000e+00
0.00000000e+00
1.43157199e+01
1.45676109e+01
1.51185316e+01
1.58202388e+01
1.64153117e+01
1.67003217e+01
0.00000000e+00
0.00000000e+00
0.00000000e+00
0.00000000e+00
1.43297023e+01
1.45511452e+01
1.50323840e+01
1.56392578e+01
1.61489696e+01
1.63918378e+01
0.00000000e+00
0.00000000e+00
0.00000000e+00
0.00000000e+00
1.42850215e+01
1.44790166e+01
1.48981804e+01
1.54219572e+01
1.58579875e+01
1.60647162e+01
0.00000000e+00
0.00000000e+00
0.00000000e+00
0.00000000e+00
1.41985509e+01
1.43683764e+01
1.47334039e+01
1.51856921e+01
1.55591140e+01
1.57353174e+01
0.00000000e+00
0.00000000e+00
0.00000000e+00
0.00000000e+00
1.40839780e+01
1.42328252e+01
1.45512165e+01
1.49425836e+01
1.52631749e+01
1.54137508e+01
0.00000000e+00
0.00000000e+00
0.00000000e+00
0.00000000e+00
1.39521909e+01
1.40829926e+01
1.43614978e+01
1.47011995e+01
1.49773301e+01
1.51064277e+01
0.00000000e+00
0.00000000e+00
0.00000000e+00
0.00000000e+00
1.38117765e+01
1.39271498e+01
1.41717019e+01
1.44677090e+01
1.47064602e+01
1.48175595e+01
0.00000000e+00
0.00000000e+00
0.00000000e+00
0.00000000e+00
1.36694932e+01
1.37717423e+01
1.39875063e+01
1.42466495e+01
1.44540069e+01
1.45500289e+01
0.00000000e+00
0.00000000e+00
0.00000000e+00
0.00000000e+00
1.35306687e+01
1.36218141e+01
1.38132820e+01
1.40414305e+01
1.42224823e+01
1.43058957e+01
0.00000000e+00
0.00000000e+00
0.00000000e+00
0.00000000e+00
1.33995133e+01
1.34813319e+01
1.36524286e+01
1.38546631e+01
1.40137775e+01
1.40866917e+01
0.00000000e+00
0.00000000e+00
0.00000000e+00
0.00000000e+00
1.32793607e+01
1.33534258e+01
1.35076103e+01
1.36883764e+01
1.38293508e+01
1.38935933e+01
0.00000000e+00
0.00000000e+00
0.00000000e+00
0.00000000e+00
1.31728468e+01
1.32405659e+01
1.33809215e+01
1.35441601e+01
1.36703448e+01
1.37275230e+01
0.00000000e+00
0.00000000e+00
0.00000000e+00
0.00000000e+00
1.30820419e+01
1.31446902e+01
1.32740029e+01
1.34232601e+01
1.35376584e+01
1.35892101e+01
0.00000000e+00
0.00000000e+00
0.00000000e+00
0.00000000e+00
1.30085472e+01
1.30672978e+01
1.31881242e+01
1.33266421e+01
1.34319923e+01
1.34792265e+01
0.00000000e+00
0.00000000e+00
0.00000000e+00
0.00000000e+00
1.29535643e+01
1.30095168e+01
1.31242437e+01
1.32550349e+01
1.33538762e+01
1.33980075e+01
0.00000000e+00
0.00000000e+00
0.00000000e+00
0.00000000e+00
1.29179572e+01
1.29721640e+01
1.30830673e+01
1.32089644e+01
1.33036827e+01
1.33458798e+01
0.00000000e+00
0.00000000e+00
0.00000000e+00
0.00000000e+00
1.29020103e+01
1.29556118e+01
1.30649458e+01
1.31884906e+01
1.32813275e+01
1.33226650e+01
0.00000000e+00
0.00000000e+00
0.00000000e+00
0.00000000e+00
0.00000000e+00
0.00000000e+00
0.00000000e+00
0.00000000e+00
0.00000000e+00
0.00000000e+00
0.00000000e+00
0.00000000e+00
0.00000000e+00
0.00000000e+00
0.00000000e+00
0.00000000e+00
0.00000000e+00
0.00000000e+00
0.00000000e+00
0.00000000e+00
0.00000000e+00
0.00000000e+00
0.00000000e+00
0.00000000e+00
-5.54538509e+02
-5.29506737e+02
-6.77992419e+02
-1.01024099e+03
-1.24387925e+03
-1.14439161e+03
0.00000000e+00
0.00000000e+00
0.00000000e+00
0.00000000e+00
-6.26464257e+02
-6.39656980e+02
-7.38381289e+02
-9.11142576e+02
-1.05224018e+03
-1.00971030e+03
0.00000000e+00
0.00000000e+00
0.00000000e+00
0.00000000e+00
-7.35323714e+02
-8.14674678e+02
-8.38958367e+02
-7.55928626e+02
-7.54669004e+02
-8.22386697e+02
0.00000000e+00
0.00000000e+00
0.00000000e+00
0.00000000e+00
-7.20136931e+02
-8.10098430e+02
-8.01803893e+02
-6.17102356e+02
-5.19956442e+02
-5.47318543e+02
0.00000000e+00
0.00000000e+00
0.00000000e+00
0.00000000e+00
-5.31932062e+02
-5.64110842e+02
-5.65458646e+02
-4.60415462e+02
-3.48430792e+02
-2.73099178e+02
0.00000000e+00
0.00000000e+00
0.00000000e+00
0.00000000e+00
-3.19066013e+02
-2.99557399e+02
-2.62081382e+02
-2.21017243e+02
-1.80855807e+02
-1.43215129e+02
0.00000000e+00
0.00000000e+00
0.00000000e+00
0.00000000e+00
-1.52281156e+02
-1.29821644e+02
-7.69892219e+01
-2.02151313e+01
-5.43442665e+01
-7.72662119e+01
0.00000000e+00
0.00000000e+00
0.00000000e+00
0.00000000e+00
-3.81112794e+01
-2.02698564e+01
5.47783700e+00
2.25529068e+01
-9.52592574e+00
-3.28641670e+01
0.00000000e+00
0.00000000e+00
0.00000000e+00
0.00000000e+00
2.40338961e+01
2.92905086e+01
1.98933192e+01
7.81906391e+00
-6.88743454e+00
-8.68414218e+00
0.00000000e+00
0.00000000e+00
0.00000000e+00
0.00000000e+00
3.66575878e+01
3.36487964e+01
1.97511405e+01
8.70884863e+00
4.29821099e+00
5.70640569e+00
0.00000000e+00
0.00000000e+00
0.00000000e+00
0.00000000e+00