# vtk DataFile Version 3.0
MPS 3D Simulation Step 3600
ASCII
DATASET UNSTRUCTURED_GRID
POINTS 27402 double
-2.40000000e-02 -2.40000000e-02 -2.40000000e-02
-2.40000000e-02 -2.40000000e-02 -1.60000000e-02
-2.40000000e-02 -2.40000000e-02 -8.00000000e-03
-2.40000000e-02 -2.40000000e-02 0.00000000e+00
-2.40000000e-02 -2.40000000e-02 8.00000000e-03
-2.40000000e-02 -2.40000000e-02 1.60000000e-02
-2.40000000e-02 -2.40000000e-02 2.40000000e-02
-2.40000000e-02 -2.40000000e-02 3.20000000e-02
-2.40000000e-02 -2.40000000e-02 4.00000000e-02
-2.40000000e-02 -2.40000000e-02 4.80000000e-02
-2.40000000e-02 -1.60000000e-02 -2.40000000e-02
-2.40000000e-02 -1.60000000e-02 -1.60000000e-02
-2.40000000e-02 -1.60000000e-02 -8.00000000e-03
-2.40000000e-02 -1.60000000e-02 0.00000000e+00
-2.40000000e-02 -1.60000000e-02 8.00000000e-03
-2.40000000e-02 -1.60000000e-02 1.60000000e-02
-2.40000000e-02 -1.60000000e-02 2.40000000e-02
-2.40000000e-02 -1.60000000e-02 3.20000000e-02
-2.40000000e-02 -1.60000000e-02 4.00000000e-02
-2.40000000e-02 -1.60000000e-02 4.80000000e-02
-2.40000000e-02 -8.00000000e-03 -2.40000000e-02
-2.40000000e-02 -8.00000000e-03 -1.60000000e-02
-2.40000000e-02 -8.00000000e-03 -8.00000000e-03
-2.40000000e-02 -8.00000000e-03 0.00000000e+00
-2.40000000e-02 -8.00000000e-03 8.00000000e-03
-2.40000000e-02 -8.00000000e-03 1.60000000e-02
-2.40000000e-02 -8.00000000e-03 2.40000000e-02
-2.40000000e-02 -8.00000000e-03 3.20000000e-02
-2.40000000e-02 -8.00000000e-03 4.00000000e-02
-2.40000000e-02 -8.00000000e-03 4.80000000e-02
-2.40000000e-02 0.00000000e+00 -2.40000000e-02
-2.40000000e-02 0.00000000e+00 -1.60000000e-02
-2.40000000e-02 0.00000000e+00 -8.00000000e-03
-2.40000000e-02 0.00000000e+00 0.00000000e+00
-2.40000000e-02 0.00000000e+00 8.00000000e-03
-2.40000000e-02 0.00000000e+00 1.60000000e-02
-2.40000000e-02 0.00000000e+00 2.40000000e-02
-2.40000000e-02 0.00000000e+00 3.20000000e-02
-2.40000000e-02 0.00000000e+00 4.00000000e-02
-2.40000000e-02 0.00000000e+00 4.80000000e-02
-2.40000000e-02 8.00000000e-03 -2.40000000e-02
-2.40000000e-02 8.00000000e-03 -1.60000000e-02
-2.40000000e-02 8.00000000e-03 -8.00000000e-03
-2.40000000e-02 8.00000000e-03 0.00000000e+00
-2.40000000e-02 8.00000000e-03 8.00000000e-03
-2.40000000e-02 8.00000000e-03 1.60000000e-02
-2.40000000e-02 8.00000000e-03 2.40000000e-02
-2.40000000e-02 8.00000000e-03 3.20000000e-02
-2.40000000e-02 8.00000000e-03 4.00000000e-02
-2.40000000e-02 8.00000000e-03 4.80000000e-02
-2.40000000e-02 1.60000000e-02 -2.40000000e-02
-2.40000000e-02 1.60000000e-02 -1.60000000e-02
-2.40000000e-02 1.60000000e-02 -8.00000000e-03
-2.40000000e-02 1.60000000e-02 0.00000000e+00
-2.40000000e-02 1.60000000e-02 8.00000000e-03
-2.40000000e-02 1.60000000e-02 1.60000000e-02
-2.40000000e-02 1.60000000e-02 2.40000000e-02
-2.40000000e-02 1.60000000e-02 3.20000000e-02
-2.40000000e-02 1.60000000e-02 4.00000000e-02
-2.40000000e-02 1.60000000e-02 4.80000000e-02
-2.40000000e-02 2.40000000e-02 -2.40000000e-02
-2.40000000e-02 2.40000000e-02 -1.60000000e-02
-2.40000000e-02 2.40000000e-02 -8.00000000e-03
-2.40000000e-02 2.40000000e-02 0.00000000e+00
-2.40000000e-02 2.40000000e-02 8.00000000e-03
-2.40000000e-02 2.40000000e-02 1.60000000e-02
-2.40000000e-02 2.40000000e-02 2.40000000e-02
-2.40000000e-02 2.40000000e-02 3.20000000e-02
-2.40000000e-02 2.40000000e-02 4.00000000e-02
-2.40000000e-02 2.40000000e-02 4.80000000e-02
-2.40000000e-02 3.20000000e-02 -2.40000000e-02
-2.40000000e-02 3.20000000e-02 -1.60000000e-02
-2.40000000e-02 3.20000000e-02 -8.00000000e-03
-2.40000000e-02 3.20000000e-02 0.00000000e+00
-2.40000000e-02 3.20000000e-02 8.00000000e-03
-2.40000000e-02 3.20000000e-02 1.60000000e-02
-2.40000000e-02 3.20000000e-02 2.40000000e-02
-2.40000000e-02 3.20000000e-02 3.20000000e-02
-2.40000000e-02 3.20000000e-02 4.00000000e-02
-2.40000000e-02 3.20000000e-02 4.80000000e-02
-2.40000000e-02 4.00000000e-02 -2.40000000e-02
-2.40000000e-02 4.00000000e-02 -1.60000000e-02
-2.40000000e-02 4.00000000e-02 -8.00000000e-03
-2.40000000e-02 4.00000000e-02 0.00000000e+00
-2.40000000e-02 4.00000000e-02 8.00000000e-03
-2.40000000e-02 4.00000000e-02 1.60000000e-02
-2.40000000e-02 4.00000000e-02 2.40000000e-02
-2.40000000e-02 4.00000000e-02 3.20000000e-02
-2.40000000e-02 4.00000000e-02 4.00000000e-02
-2.40000000e-02 4.00000000e-02 4.80000000e-02
-2.40000000e-02 4.80000000e-02 -2.40000000e-02
-2.40000000e-02 4.80000000e-02 -1.60000000e-02
-2.40000000e-02 4.80000000e-02 -8.00000000e-03
-2.40000000e-02 4.80000000e-02 0.00000000e+00
-2.40000000e-02 4.80000000e-02 8.00000000e-03
-2.40000000e-02 4.80000000e-02 1.60000000e-02
-2.40000000e-02 4.80000000e-02 2.40000000e-02
-2.40000000e-02 4.80000000e-02 3.20000000e-02
-2.40000000e-02 4.80000000e-02 4.00000000e-02
-2.40000000e-02 4.80000000e-02 4.80000000e-02
-2.40000000e-02 5.60000000e-02 -2.40000000e-02
-2.40000000e-02 5.60000000e-02 -1.60000000e-02
-2.40000000e-02 5.60000000e-02 -8.00000000e-03
-2.40000000e-02 5.60000000e-02 0.00000000e+00
-2.40000000e-02 5.60000000e-02 8.00000000e-03
-2.40000000e-02 5.60000000e-02 1.60000000e-02
-2.40000000e-02 5.60000000e-02 2.40000000e-02
-2.40000000e-02 5.60000000e-02 3.20000000e-02
-2.40000000e-02 5.60000000e-02 4.00000000e-02
-2.40000000e-02 5.60000000e-02 4.80000000e-02
-2.40000000e-02 6.40000000e-02 -2.40000000e-02
-2.40000000e-02 6.40000000e-02 -1.60000000e-02
-2.40000000e-02 6.40000000e-02 -8.00000000e-03
-2.40000000e-02 6.40000000e-02 0.00000000e+00
-2.40000000e-02 6.40000000e-02 8.00000000e-03
-2.40000000e-02 6.40000000e-02 1.60000000e-02
-2.40000000e-02 6.40000000e-02 2.40000000e-02
-2.40000000e-02 6.40000000e-02 3.20000000e-02
-2.40000000e-02 6.40000000e-02 4.00000000e-02
-2.40000000e-02 6.40000000e-02 4.80000000e-02
-2.40000000e-02 7.20000000e-02 -2.40000000e-02
-2.40000000e-02 7.20000000e-02 -1.60000000e-02
-2.40000000e-02 7.20000000e-02 -8.00000000e-03
-2.40000000e-02 7.20000000e-02 0.00000000e+00
-2.40000000e-02 7.20000000e-02 8.00000000e-03
-2.40000000e-02 7.20000000e-02 1.60000000e-02
-2.40000000e-02 7.20000000e-02 2.40000000e-02
-2.40000000e-02 7.20000000e-02 3.20000000e-02
-2.40000000e-02 7.20000000e-02 4.00000000e-02
-2.40000000e-02 7.20000000e-02 4.80000000e-02
-2.40000000e-02 8.00000000e-02 -2.40000000e-02
-2.40000000e-02 8.00000000e-02 -1.60000000e-02
-2.40000000e-02 8.00000000e-02 -8.00000000e-03
-2.40000000e-02 8.00000000e-02 0.00000000e+00
-2.40000000e-02 8.00000000e-02 8.00000000e-03
-2.40000000e-02 8.00000000e-02 1.60000000e-02
-2.40000000e-02 8.00000000e-02 2.40000000e-02
-2.40000000e-02 8.00000000e-02 3.20000000e-02
-2.40000000e-02 8.00000000e-02 4.00000000e-02
-2.40000000e-02 8.00000000e-02 4.80000000e-02
-2.40000000e-02 8.80000000e-02 -2.40000000e-02
-2.40000000e-02 8.80000000e-02 -1.60000000e-02
-2.40000000e-02 8.80000000e-02 -8.00000000e-03
-2.40000000e-02 8.80000000e-02 0.00000000e+00
-2.40000000e-02 8.80000000e-02 8.00000000e-03
-2.40000000e-02 8.80000000e-02 1.60000000e-02
-2.40000000e-02 8.80000000e-02 2.40000000e-02
-2.40000000e-02 8.80000000e-02 3.20000000e-02
-2.40000000e-02 8.80000000e-02 4.00000000e-02
-2.40000000e-02 8.80000000e-02 4.80000000e-02
-2.40000000e-02 9.60000000e-02 -2.40000000e-02
-2.40000000e-02 9.60000000e-02 -1.60000000e-02
-2.40000000e-02 9.60000000e-02 -8.00000000e-03
-2.40000000e-02 9.60000000e-02 0.00000000e+00
-2.40000000e-02 9.60000000e-02 8.00000000e-03
-2.40000000e-02 9.60000000e-02 1.60000000e-02
-2.40000000e-02 9.60000000e-02 2.40000000e-02
-2.40000000e-02 9.60000000e-02 3.20000000e-02
-2.40000000e-02 9.60000000e-02 4.00000000e-02
-2.40000000e-02 9.60000000e-02 4.80000000e-02
-2.40000000e-02 1.04000000e-01 -2.40000000e-02
-2.40000000e-02 1.04000000e-01 -1.60000000e-02
-2.40000000e-02 1.04000000e-01 -8.00000000e-03
-2.40000000e-02 1.04000000e-01 0.00000000e+00
-2.40000000e-02 1.04000000e-01 8.00000000e-03
-2.40000000e-02 1.04000000e-01 1.60000000e-02
-2.40000000e-02 1.04000000e-01 2.40000000e-02
-2.40000000e-02 1.04000000e-01 3.20000000e-02
-2.40000000e-02 1.04000000e-01 4.00000000e-02
-2.40000000e-02 1.04000000e-01 4.80000000e-02
-2.40000000e-02 1.12000000e-01 -2.40000000e-02
-2.40000000e-02 1.12000000e-01 -1.60000000e-02
-2.40000000e-02 1.12000000e-01 -8.00000000e-03
-2.40000000e-02 1.12000000e-01 0.00000000e+00
-2.40000000e-02 1.12000000e-01 8.00000000e-03
-2.40000000e-02 1.12000000e-01 1.60000000e-02
-2.40000000e-02 1.12000000e-01 2.40000000e-02
-2.40000000e-02 1.12000000e-01 3.20000000e-02
-2.40000000e-02 1.12000000e-01 4.00000000e-02
-2.40000000e-02 1.12000000e-01 4.80000000e-02
-2.40000000e-02 1.20000000e-01 -2.40000000e-02
-2.40000000e-02 1.20000000e-01 -1.60000000e-02
-2.40000000e-02 1.20000000e-01 -8.00000000e-03
-2.40000000e-02 1.20000000e-01 0.00000000e+00
-2.40000000e-02 1.20000000e-01 8.00000000e-03
-2.40000000e-02 1.20000000e-01 1.60000000e-02
-2.40000000e-02 1.20000000e-01 2.40000000e-02
-2.40000000e-02 1.20000000e-01 3.20000000e-02
-2.40000000e-02 1.20000000e-01 4.00000000e-02
-2.40000000e-02 1.20000000e-01 4.80000000e-02
-2.40000000e-02 1.28000000e-01 -2.40000000e-02
-2.40000000e-02 1.28000000e-01 -1.60000000e-02
-2.40000000e-02 1.28000000e-01 -8.00000000e-03
-2.40000000e-02 1.28000000e-01 0.00000000e+00
-2.40000000e-02 1.28000000e-01 8.00000000e-03
-2.40000000e-02 1.28000000e-01 1.60000000e-02
-2.40000000e-02 1.28000000e-01 2.40000000e-02
-2.40000000e-02 1.28000000e-01 3.20000000e-02
-2.40000000e-02 1.28000000e-01 4.00000000e-02
-2.40000000e-02 1.28000000e-01 4.80000000e-02
-2.40000000e-02 1.36000000e-01 -2.40000000e-02
-2.40000000e-02 1.36000000e-01 -1.60000000e-02
-2.40000000e-02 1.36000000e-01 -8.00000000e-03
-2.40000000e-02 1.36000000e-01 0.00000000e+00
-2.40000000e-02 1.36000000e-01 8.00000000e-03
-2.40000000e-02 1.36000000e-01 1.60000000e-02
-2.40000000e-02 1.36000000e-01 2.40000000e-02
-2.40000000e-02 1.36000000e-01 3.20000000e-02
-2.40000000e-02 1.36000000e-01 4.00000000e-02
-2.40000000e-02 1.36000000e-01 4.80000000e-02
-2.40000000e-02 1.44000000e-01 -2.40000000e-02
-2.40000000e-02 1.44000000e-01 -1.60000000e-02
[...]
POINT_DATA 27402
SCALARS pressure double 1
LOOKUP_TABLE default
0.00000000e+00
0.00000000e+00
0.00000000e+00
0.00000000e+00
0.00000000e+00
0.00000000e+00
0.00000000e+00
0.00000000e+00
0.00000000e+00
0.00000000e+00
0.00000000e+00
0.00000000e+00
0.00000000e+00
0.00000000e+00
0.00000000e+00
0.00000000e+00
0.00000000e+00
0.00000000e+00
0.00000000e+00
0.00000000e+00
0.00000000e+00
0.00000000e+00
0.00000000e+00
0.00000000e+00
0.00000000e+00
0.00000000e+00
0.00000000e+00
0.00000000e+00
0.00000000e+00
0.00000000e+00
0.00000000e+00
0.00000000e+00
0.00000000e+00
0.00000000e+00
0.00000000e+00
0.00000000e+00
0.00000000e+00
0.00000000e+00
0.00000000e+00
0.00000000e+00
0.00000000e+00
0.00000000e+00
0.00000000e+00
0.00000000e+00
0.00000000e+00
0.00000000e+00
0.00000000e+00
0.00000000e+00
0.00000000e+00
0.00000000e+00
0.00000000e+00
0.00000000e+00
0.00000000e+00
0.00000000e+00
0.00000000e+00
0.00000000e+00
0.00000000e+00
0.00000000e+00
0.00000000e+00
0.00000000e+00
0.00000000e+00
0.00000000e+00
0.00000000e+00
0.00000000e+00
0.00000000e+00
0.00000000e+00
0.00000000e+00
0.00000000e+00
0.00000000e+00
0.00000000e+00
0.00000000e+00
0.00000000e+00
0.00000000e+00
0.00000000e+00
0.00000000e+00
0.00000000e+00
0.00000000e+00
0.00000000e+00
0.00000000e+00
0.00000000e+00
0.00000000e+00
0.00000000e+00
0.00000000e+00
0.00000000e+00
0.00000000e+00
0.00000000e+00
0.00000000e+00
0.00000000e+00
0.00000000e+00
0.00000000e+00
0.00000000e+00
0.00000000e+00
0.00000000e+00
0.00000000e+00
0.00000000e+00
0.00000000e+00
0.00000000e+00
0.00000000e+00
0.00000000e+00
0.00000000e+00
0.00000000e+00
0.00000000e+00
0.00000000e+00
0.00000000e+00
0.00000000e+00
0.00000000e+00
0.00000000e+00
0.00000000e+00
0.00000000e+00
0.00000000e+00
0.00000000e+00
0.00000000e+00
0.00000000e+00
0.00000000e+00
0.00000000e+00
0.00000000e+00
0.00000000e+00
0.00000000e+00
0.00000000e+00
0.00000000e+00
0.00000000e+00
0.00000000e+00
0.00000000e+00
0.00000000e+00
0.00000000e+00
0.00000000e+00
0.00000000e+00
0.00000000e+00
0.00000000e+00
0.00000000e+00
0.00000000e+00
0.00000000e+00
0.00000000e+00
0.00000000e+00
0.00000000e+00
0.00000000e+00
0.00000000e+00
0.00000000e+00
0.00000000e+00
0.00000000e+00
0.00000000e+00
0.00000000e+00
0.00000000e+00
0.00000000e+00
0.00000000e+00
0.00000000e+00
0.00000000e+00
0.00000000e+00
0.00000000e+00
0.00000000e+00
0.00000000e+00
0.00000000e+00
0.00000000e+00
0.00000000e+00
0.00000000e+00
0.00000000e+00
0.00000000e+00
0.00000000e+00
0.00000000e+00
0.00000000e+00
0.00000000e+00
0.00000000e+00
0.00000000e+00
0.00000000e+00
0.00000000e+00
0.00000000e+00
0.00000000e+00
0.00000000e+00
0.00000000e+00
0.00000000e+00
0.00000000e+00
0.00000000e+00
0.00000000e+00
0.00000000e+00
0.00000000e+00
0.00000000e+00
0.00000000e+00
0.00000000e+00
0.00000000e+00
0.00000000e+00
0.00000000e+00
0.00000000e+00
0.00000000e+00
0.00000000e+00
0.00000000e+00
0.00000000e+00
0.00000000e+00
0.00000000e+00
0.00000000e+00
0.00000000e+00
0.00000000e+00
0.00000000e+00
0.00000000e+00
0.00000000e+00
0.00000000e+00
0.00000000e+00
0.00000000e+00
0.00000000e+00
0.00000000e+00
0.00000000e+00
0.00000000e+00
0.00000000e+00
0.00000000e+00
0.00000000e+00
0.00000000e+00
0.00000000e+00
0.00000000e+00
0.00000000e+00
0.00000000e+00
0.00000000e+00
0.00000000e+00
0.00000000e+00
0.00000000e+00
0.00000000e+00
0.00000000e+00
0.00000000e+00
0.00000000e+00
0.00000000e+00
0.00000000e+00
0.00000000e+00
0.00000000e+00
0.00000000e+00
0.00000000e+00
0.00000000e+00
0.00000000e+00
0.00000000e+00
0.00000000e+00
0.00000000e+00
0.00000000e+00
0.00000000e+00
0.00000000e+00
0.00000000e+00
0.00000000e+00
0.00000000e+00
0.00000000e+00
0.00000000e+00
0.00000000e+00
0.00000000e+00
0.00000000e+00
0.00000000e+00
0.00000000e+00
0.00000000e+00
0.00000000e+00
0.00000000e+00
0.00000000e+00
0.00000000e+00
0.00000000e+00
0.00000000e+00
0.00000000e+00
0.00000000e+00
0.00000000e+00
0.00000000e+00
0.00000000e+00
0.00000000e+00
0.00000000e+00
0.00000000e+00
0.00000000e+00
0.00000000e+00
0.00000000e+00
0.00000000e+00
0.00000000e+00
0.00000000e+00
0.00000000e+00
0.00000000e+00
0.00000000e+00
0.00000000e+00
0.00000000e+00
0.00000000e+00
0.00000000e+00
0.00000000e+00
0.00000000e+00
0.00000000e+00
0.00000000e+00
0.00000000e+00
0.00000000e+00
0.00000000e+00
0.00000000e+00
0.00000000e+00
0.00000000e+00
0.00000000e+00
0.00000000e+00
0.00000000e+00
0.00000000e+00
0.00000000e+00
0.00000000e+00
0.00000000e+00
0.00000000e+00
0.00000000e+00
0.00000000e+00
0.00000000e+00
0.00000000e+00
0.00000000e+00
0.00000000e+00
0.00000000e+00
0.00000000e+00
0.00000000e+00
0.00000000e+00
0.00000000e+00
0.00000000e+00
0.00000000e+00
0.00000000e+00
0.00000000e+00
0.00000000e+00
0.00000000e+00
0.00000000e+00
0.00000000e+00
0.00000000e+00
0.00000000e+00
0.00000000e+00
0.00000000e+00
0.00000000e+00
0.00000000e+00
0.00000000e+00
0.00000000e+00
0.00000000e+00
0.00000000e+00
0.00000000e+00
0.00000000e+00
0.00000000e+00
0.00000000e+00
0.00000000e+00
0.00000000e+00
0.00000000e+00
0.00000000e+00
0.00000000e+00
0.00000000e+00
0.00000000e+00
0.00000000e+00
0.00000000e+00
0.00000000e+00
0.00000000e+00
0.00000000e+00
0.00000000e+00
0.00000000e+00
0.00000000e+00
0.00000000e+00
0.00000000e+00
0.00000000e+00
0.00000000e+00
0.00000000e+00
0.00000000e+00
0.00000000e+00
0.00000000e+00
0.00000000e+00
0.00000000e+00
0.00000000e+00
0.00000000e+00
0.00000000e+00
0.00000000e+00
0.00000000e+00
0.00000000e+00
0.00000000e+00
0.00000000e+00
0.00000000e+00
0.00000000e+00
0.00000000e+00
0.00000000e+00
0.00000000e+00
0.00000000e+00
0.00000000e+00
0.00000000e+00
0.00000000e+00
0.00000000e+00
0.00000000e+00
0.00000000e+00
0.00000000e+00
0.00000000e+00
0.00000000e+00
0.00000000e+00
0.00000000e+00
0.00000000e+00
0.00000000e+00
0.00000000e+00
0.00000000e+00
0.00000000e+00
0.00000000e+00
0.00000000e+00
0.00000000e+00
0.00000000e+00
0.00000000e+00
0.00000000e+00
0.00000000e+00
0.00000000e+00
0.00000000e+00
0.00000000e+00
0.00000000e+00
0.00000000e+00
0.00000000e+00
0.00000000e+00
0.00000000e+00
0.00000000e+00
0.00000000e+00
0.00000000e+00
0.00000000e+00
0.00000000e+00
0.00000000e+00
0.00000000e+00
0.00000000e+00
0.00000000e+00
0.00000000e+00
0.00000000e+00
0.00000000e+00
0.00000000e+00
0.00000000e+00
0.00000000e+00
0.00000000e+00
0.00000000e+00
0.00000000e+00
0.00000000e+00
0.00000000e+00
0.00000000e+00
0.00000000e+00
0.00000000e+00
0.00000000e+00
0.00000000e+00
0.00000000e+00
0.00000000e+00
0.00000000e+00
0.00000000e+00
0.00000000e+00
0.00000000e+00
0.00000000e+00
0.00000000e+00
0.00000000e+00
0.00000000e+00
0.00000000e+00
0.00000000e+00
0.00000000e+00
0.00000000e+00
0.00000000e+00
0.00000000e+00
0.00000000e+00
0.00000000e+00
0.00000000e+00
0.00000000e+00
0.00000000e+00
0.00000000e+00
0.00000000e+00
0.00000000e+00
0.00000000e+00
0.00000000e+00
0.00000000e+00
0.00000000e+00
0.00000000e+00
0.00000000e+00
0.00000000e+00
0.00000000e+00
0.00000000e+00
0.00000000e+00
0.00000000e+00
0.00000000e+00
0.00000000e+00
0.00000000e+00
0.00000000e+00
0.00000000e+00
0.00000000e+00
0.00000000e+00
0.00000000e+00
0.00000000e+00
0.00000000e+00
0.00000000e+00
0.00000000e+00
0.00000000e+00
0.00000000e+00
0.00000000e+00
0.00000000e+00
0.00000000e+00
0.00000000e+00
0.00000000e+00
0.00000000e+00
0.00000000e+00
0.00000000e+00
0.00000000e+00
0.00000000e+00
0.00000000e+00
0.00000000e+00
0.00000000e+00
0.00000000e+00
0.00000000e+00
0.00000000e+00
0.00000000e+00
0.00000000e+00
0.00000000e+00
0.00000000e+00
0.00000000e+00
0.00000000e+00
0.00000000e+00
0.00000000e+00
0.00000000e+00
0.00000000e+00
0.00000000e+00
0.00000000e+00
0.00000000e+00
0.00000000e+00
0.00000000e+00
0.00000000e+00
0.00000000e+00
0.00000000e+00
0.00000000e+00
0.00000000e+00
0.00000000e+00
0.00000000e+00
0.00000000e+00
0.00000000e+00
0.00000000e+00
0.00000000e+00
0.00000000e+00
0.00000000e+00
0.00000000e+00
0.00000000e+00
0.00000000e+00
0.00000000e+00
0.00000000e+00
0.00000000e+00
0.00000000e+00
0.00000000e+00
0.00000000e+00
0.00000000e+00
0.00000000e+00
0.00000000e+00
0.00000000e+00
0.00000000e+00
0.00000000e+00
0.00000000e+00
0.00000000e+00
0.00000000e+00
0.00000000e+00
0.00000000e+00
0.00000000e+00
0.00000000e+00
0.00000000e+00
0.00000000e+00
0.00000000e+00
0.00000000e+00
0.00000000e+00
0.00000000e+00
0.00000000e+00
0.00000000e+00
0.00000000e+00
0.00000000e+00
0.00000000e+00
0.00000000e+00
0.00000000e+00
0.00000000e+00
0.00000000e+00
0.00000000e+00
0.00000000e+00
0.00000000e+00
0.00000000e+00
0.00000000e+00
0.00000000e+00
0.00000000e+00
0.00000000e+00
0.00000000e+00
0.00000000e+00
0.00000000e+00
0.00000000e+00
0.00000000e+00
0.00000000e+00
0.00000000e+00
0.00000000e+00
0.00000000e+00
0.00000000e+00
0.00000000e+00
0.00000000e+00
0.00000000e+00
0.00000000e+00
0.00000000e+00
0.00000000e+00
0.00000000e+00
0.00000000e+00
0.00000000e+00
0.00000000e+00
0.00000000e+00
0.00000000e+00
0.00000000e+00
0.00000000e+00
0.00000000e+00
0.00000000e+00
0.00000000e+00
0.00000000e+00
0.00000000e+00
0.00000000e+00
0.00000000e+00
0.00000000e+00
0.00000000e+00
0.00000000e+00
0.00000000e+00
0.00000000e+00
0.00000000e+00
0.00000000e+00
0.00000000e+00
0.00000000e+00
0.00000000e+00
0.00000000e+00
0.00000000e+00
0.00000000e+00
0.00000000e+00
0.00000000e+00
0.00000000e+00
0.00000000e+00
0.00000000e+00
0.00000000e+00
0.00000000e+00
0.00000000e+00
0.00000000e+00
0.00000000e+00
0.00000000e+00
0.00000000e+00
0.00000000e+00
0.00000000e+00
0.00000000e+00
0.00000000e+00
0.00000000e+00
0.00000000e+00
0.00000000e+00
0.00000000e+00
0.00000000e+00
0.00000000e+00
0.00000000e+00
0.00000000e+00
0.00000000e+00
0.00000000e+00
0.00000000e+00
0.00000000e+00
0.00000000e+00
0.00000000e+00
0.00000000e+00
0.00000000e+00
0.00000000e+00
0.00000000e+00
0.00000000e+00
0.00000000e+00
0.00000000e+00
0.00000000e+00
0.00000000e+00
0.00000000e+00
0.00000000e+00
0.00000000e+00
0.00000000e+00
0.00000000e+00
0.00000000e+00
0.00000000e+00
0.00000000e+00
0.00000000e+00
0.00000000e+00
0.00000000e+00
0.00000000e+00
0.00000000e+00
0.00000000e+00
0.00000000e+00
0.00000000e+00
0.00000000e+00
0.00000000e+00
0.00000000e+00
0.00000000e+00
0.00000000e+00
0.00000000e+00
0.00000000e+00
0.00000000e+00
0.00000000e+00
0.00000000e+00
0.00000000e+00
0.00000000e+00
0.00000000e+00
0.00000000e+00
0.00000000e+00
0.00000000e+00
0.00000000e+00
0.00000000e+00
0.00000000e+00
0.00000000e+00
0.00000000e+00
0.00000000e+00
0.00000000e+00
0.00000000e+00
0.00000000e+00
0.00000000e+00
0.00000000e+00
0.00000000e+00
0.00000000e+00
0.00000000e+00
0.00000000e+00
0.00000000e+00
0.00000000e+00
0.00000000e+00
0.00000000e+00
0.00000000e+00
0.00000000e+00
0.00000000e+00
0.00000000e+00
0.00000000e+00
0.00000000e+00
0.00000000e+00
0.00000000e+00
0.00000000e+00
0.00000000e+00
0.00000000e+00
0.00000000e+00
0.00000000e+00
0.00000000e+00
0.00000000e+00
0.00000000e+00
0.00000000e+00
0.00000000e+00
0.00000000e+00
0.00000000e+00
0.00000000e+00
0.00000000e+00
0.00000000e+00
0.00000000e+00
0.00000000e+00
0.00000000e+00
0.00000000e+00
0.00000000e+00
0.00000000e+00
0.00000000e+00
0.00000000e+00
0.00000000e+00
0.00000000e+00
0.00000000e+00
0.00000000e+00
0.00000000e+00
0.00000000e+00
0.00000000e+00
0.00000000e+00
0.00000000e+00
0.00000000e+00
0.00000000e+00
0.00000000e+00
0.00000000e+00
0.00000000e+00
0.00000000e+00
0.00000000e+00
0.00000000e+00
0.00000000e+00
0.00000000e+00
0.00000000e+00
0.00000000e+00
0.00000000e+00
0.00000000e+00
0.00000000e+00
0.00000000e+00
0.00000000e+00
0.00000000e+00
0.00000000e+00
0.00000000e+00
0.00000000e+00
0.00000000e+00
0.00000000e+00
0.00000000e+00
0.00000000e+00
0.00000000e+00
0.00000000e+00
0.00000000e+00
0.00000000e+00
0.00000000e+00
0.00000000e+00
0.00000000e+00
0.00000000e+00
0.00000000e+00
0.00000000e+00
0.00000000e+00
0.00000000e+00
0.00000000e+00
0.00000000e+00
0.00000000e+00
0.00000000e+00
0.00000000e+00
0.00000000e+00
0.00000000e+00
0.00000000e+00
0.00000000e+00
0.00000000e+00
0.00000000e+00
0.00000000e+00
0.00000000e+00
0.00000000e+00
0.00000000e+00
0.00000000e+00
0.00000000e+00
0.00000000e+00
0.00000000e+00
0.00000000e+00
0.00000000e+00
0.00000000e+00
0.00000000e+00
0.00000000e+00
0.00000000e+00
0.00000000e+00
0.00000000e+00
0.00000000e+00
0.00000000e+00
0.00000000e+00
0.00000000e+00
0.00000000e+00
0.00000000e+00
0.00000000e+00
0.00000000e+00
0.00000000e+00
0.00000000e+00
0.00000000e+00
0.00000000e+00
0.00000000e+00
0.00000000e+00
0.00000000e+00
0.00000000e+00
0.00000000e+00
0.00000000e+00
0.00000000e+00
0.00000000e+00
0.00000000e+00
0.00000000e+00
0.00000000e+00
0.00000000e+00
0.00000000e+00
0.00000000e+00
0.00000000e+00
0.00000000e+00
0.00000000e+00
0.00000000e+00
0.00000000e+00
1.26693740e+02
-4.49638704e+01
-4.80488556e+02
-1.39297422e+03
-2.21246603e+03
-2.02323640e+03
0.00000000e+00
0.00000000e+00
0.00000000e+00
0.00000000e+00
2.43794799e+02
4.02767498e+01
-4.06725574e+02
-9.95437239e+02
-1.44413281e+03
-1.21858977e+03
0.00000000e+00
0.00000000e+00
0.00000000e+00
0.00000000e+00
-3.14496573e+00
-1.46660610e+02
-4.63352065e+02
-8.45924401e+02
-1.15710828e+03
-1.15548114e+03
0.00000000e+00
0.00000000e+00
0.00000000e+00
0.00000000e+00
-2.49636200e+02
-3.24825946e+02
-4.86631893e+02
-7.05767218e+02
-9.06166853e+02
-9.70786136e+02
0.00000000e+00
0.00000000e+00
0.00000000e+00
0.00000000e+00
-3.49957803e+02
-3.86539644e+02
-4.66036493e+02
-5.67946743e+02
-6.52488807e+02
-6.89715371e+02
0.00000000e+00
0.00000000e+00
0.00000000e+00
0.00000000e+00
-4.04732841e+02
-4.17300140e+02
-4.45432075e+02
-4.81465327e+02
-5.11137117e+02
-5.25516591e+02
0.00000000e+00
0.00000000e+00
0.00000000e+00
0.00000000e+00
-4.48907963e+02
-4.48894080e+02
-4.51816757e+02
-4.42711079e+02
-4.29781214e+02
-4.27636637e+02
0.00000000e+00
0.00000000e+00
0.00000000e+00
0.00000000e+00
-4.93427029e+02
-4.95195876e+02
-4.95931341e+02
-4.45399427e+02
-3.88022906e+02
-3.72668570e+02
0.00000000e+00
0.00000000e+00
0.00000000e+00
0.00000000e+00
-5.37916158e+02
-5.34490061e+02
-5.29962551e+02
-4.57432504e+02
-3.74406394e+02
-3.51885407e+02
0.00000000e+00
0.00000000e+00
0.00000000e+00
0.00000000e+00
-5.81718649e+02
-5.61961714e+02
-5.20214762e+02
-4.46760745e+02
-3.81202812e+02
-3.57894931e+02
0.00000000e+00
0.00000000e+00
0.00000000e+00
0.00000000e+00
-6.23956733e+02
-5.96221993e+02
-5.36230554e+02
-4.62557110e+02
-4.04486585e+02
-3.79120519e+02
0.00000000e+00
0.00000000e+00
0.00000000e+00
0.00000000e+00
-6.58083251e+02
-6.27198251e+02
-5.62835399e+02
-4.87763208e+02
-4.29654398e+02
-4.03595165e+02
0.00000000e+00
0.00000000e+00
0.00000000e+00
0.00000000e+00
-6.75577269e+02
-6.44377000e+02
-5.80048881e+02
-5.06226133e+02
-4.49645558e+02
-4.24221359e+02
0.00000000e+00
0.00000000e+00
0.00000000e+00
0.00000000e+00
-6.72646577e+02
-6.43603062e+02
-5.83735327e+02
-5.14948404e+02
-4.62149617e+02
-4.38366882e+02
0.00000000e+00
0.00000000e+00
0.00000000e+00
0.00000000e+00
-6.52464161e+02
-6.27291793e+02
-5.75097958e+02
-5.14380719e+02
-4.67248229e+02
-4.45861904e+02
0.00000000e+00
0.00000000e+00
0.00000000e+00
0.00000000e+00
-6.22108773e+02
-6.01407948e+02
-5.58097905e+02
-5.06804435e+02
-4.66310745e+02
-4.47739952e+02
0.00000000e+00
0.00000000e+00
0.00000000e+00
0.00000000e+00
-5.88295175e+02
-5.71822474e+02
-5.37005968e+02
-4.94968441e+02
-4.61164827e+02
-4.45481862e+02
0.00000000e+00
0.00000000e+00
0.00000000e+00
0.00000000e+00
-5.55415420e+02
-5.42537158e+02
-5.15036917e+02
-4.81217608e+02
-4.53541983e+02
-4.40562036e+02
0.00000000e+00
0.00000000e+00
0.00000000e+00
0.00000000e+00
-5.25665167e+02
-5.15673623e+02
-4.94129380e+02
-4.67194407e+02
-4.44807182e+02
-4.34207919e+02
0.00000000e+00
0.00000000e+00
0.00000000e+00
0.00000000e+00
-4.99824553e+02
-4.92084530e+02
-4.75246894e+02
-4.53891942e+02
-4.35904298e+02
-4.27320291e+02
0.00000000e+00
0.00000000e+00
0.00000000e+00
0.00000000e+00
-4.77921066e+02
-4.71912648e+02
-4.58738963e+02
-4.41824232e+02
-4.27415373e+02
-4.20494116e+02
0.00000000e+00
0.00000000e+00
0.00000000e+00
0.00000000e+00
-4.59636343e+02
-4.54951931e+02
-4.44610628e+02
-4.31193365e+02
-4.19655604e+02
-4.14083701e+02
0.00000000e+00
0.00000000e+00
0.00000000e+00
0.00000000e+00
-4.44524743e+02
-4.40851177e+02
-4.32693559e+02
-4.22016301e+02
-4.12762471e+02
-4.08273987e+02
0.00000000e+00
0.00000000e+00
0.00000000e+00
0.00000000e+00
-4.32121841e+02
-4.29220635e+02
-4.22746065e+02
-4.14209973e+02
-4.06764016e+02
-4.03139684e+02
0.00000000e+00
0.00000000e+00
0.00000000e+00
0.00000000e+00
-4.21993895e+02
-4.19684016e+02
-4.14508061e+02
-4.07644067e+02
-4.01625562e+02
-3.98687895e+02
0.00000000e+00
0.00000000e+00
0.00000000e+00
0.00000000e+00
-4.13757133e+02
-4.11901217e+02
-4.07729249e+02
-4.02171854e+02
-3.97279538e+02
-3.94886553e+02
0.00000000e+00
0.00000000e+00
0.00000000e+00
0.00000000e+00
-4.07082207e+02
-4.05575901e+02
-4.02182120e+02
-3.97647210e+02
-3.93643722e+02
-3.91682639e+02
0.00000000e+00
0.00000000e+00
0.00000000e+00
0.00000000e+00
-4.01691766e+02
-4.00455595e+02
-3.97666665e+02
-3.93933407e+02
-3.90632102e+02
-3.89013629e+02
0.00000000e+00
0.00000000e+00
0.00000000e+00
0.00000000e+00
-3.97355181e+02
-3.96328374e+02
-3.94010785e+02
-3.90907160e+02
-3.88161145e+02
-3.86814592e+02
0.00000000e+00
0.00000000e+00
0.00000000e+00
0.00000000e+00
-3.93882430e+02
-3.93018251e+02
-3.91068620e+02
-3.88460034e+02
-3.86153290e+02
-3.85022530e+02
0.00000000e+00
0.00000000e+00
0.00000000e+00
0.00000000e+00
-3.91118136e+02
-3.90380357e+02
-3.88718019e+02
-3.86498422e+02
-3.84538735e+02
-3.83578945e+02
0.00000000e+00
0.00000000e+00
0.00000000e+00
0.00000000e+00
-3.88936206e+02
-3.88296448e+02
-3.86857810e+02
-3.84942820e+02
-3.83256211e+02
-3.82431274e+02
0.00000000e+00
0.00000000e+00
0.00000000e+00
0.00000000e+00
-3.87235249e+02
-3.86670974e+02
-3.85405220e+02
-3.83726806e+02
-3.82253169e+02
-3.81533621e+02
0.00000000e+00
0.00000000e+00
0.00000000e+00
0.00000000e+00
-3.85934787e+02
-3.85427778e+02
-3.84293588e+02
-3.82795958e+02
-3.81485636e+02
-3.80847044e+02
0.00000000e+00
0.00000000e+00
0.00000000e+00
0.00000000e+00
-3.84972234e+02
-3.84507428e+02
-3.83470446e+02
-3.82106847e+02
-3.80917934e+02
-3.80339601e+02
0.00000000e+00
0.00000000e+00
0.00000000e+00
0.00000000e+00
-3.84300525e+02
-3.83865101e+02
-3.82895980e+02
-3.81626188e+02
-3.80522362e+02
-3.79986268e+02
0.00000000e+00
0.00000000e+00
0.00000000e+00
0.00000000e+00
-3.83886487e+02
-3.83468966e+02
-3.82541865e+02
-3.81330295e+02
-3.80278999e+02
-3.79768894e+02
0.00000000e+00
0.00000000e+00
0.00000000e+00
0.00000000e+00
-3.83706442e+02
-3.83296580e+02
-3.82388158e+02
-3.81203793e+02
-3.80174532e+02
-3.79674428e+02
0.00000000e+00
0.00000000e+00
0.00000000e+00
0.00000000e+00
0.00000000e+00
0.00000000e+00
0.00000000e+00
0.00000000e+00
0.00000000e+00
0.00000000e+00
0.00000000e+00
0.00000000e+00
0.00000000e+00
0.00000000e+00
0.00000000e+00
0.00000000e+00
0.00000000e+00
0.00000000e+00
0.00000000e+00
0.00000000e+00
0.00000000e+00
0.00000000e+00
0.00000000e+00
0.00000000e+00
8.74996003e+01
-1.07553410e+02
-4.77446324e+02
-1.14035119e+03
-2.10371191e+03
-2.20239138e+03
0.00000000e+00
0.00000000e+00
0.00000000e+00
0.00000000e+00
5.44565977e+01
-1.16776460e+02
-4.40349560e+02
-9.15117647e+02
-1.36072493e+03
-1.24814011e+03
0.00000000e+00
0.00000000e+00
0.00000000e+00
0.00000000e+00
-1.29448005e+02
-2.30613879e+02
-4.66923340e+02
-8.53491892e+02
-1.10246239e+03
-1.08352495e+03
0.00000000e+00
0.00000000e+00
0.00000000e+00
0.00000000e+00
-2.66711878e+02
-3.22977726e+02
-4.71729634e+02
-6.88288737e+02
-8.48462795e+02
-8.95627342e+02
0.00000000e+00
0.00000000e+00
0.00000000e+00
0.00000000e+00
-3.46560021e+02
-3.73288090e+02
-4.41249042e+02
-5.42766563e+02
-6.10857060e+02
-6.38925861e+02
0.00000000e+00
0.00000000e+00
0.00000000e+00
0.00000000e+00
-3.99693177e+02
-4.01403191e+02
-4.11738261e+02
-4.49886038e+02
-4.81384207e+02
-4.89230929e+02
0.00000000e+00
0.00000000e+00
0.00000000e+00
0.00000000e+00
-4.48729326e+02
-4.40907000e+02
-4.20461682e+02
-4.01066462e+02
-3.96476285e+02
-3.94167233e+02
0.00000000e+00
0.00000000e+00
0.00000000e+00
0.00000000e+00
-4.96382936e+02
-4.82734411e+02
-4.34829660e+02
-3.49604904e+02
-3.29825768e+02
-3.35234468e+02
0.00000000e+00
0.00000000e+00
0.00000000e+00
0.00000000e+00
-5.46441092e+02
-5.27619630e+02
-4.51104779e+02
-3.15341281e+02
-3.07651889e+02
-3.13980062e+02
0.00000000e+00
0.00000000e+00